# Solver information
# Time        	U_solver      	Ux_initial    	Ux_final      	Ux_iters      	Uy_initial    	Uy_final      	Uy_iters      	U_converged   	p_solver      	p_initial     	p_final       	p_iters       	p_converged   
1             	smoothSolver	1.000000e+00	3.066240e-02	1	1.000000e+00	3.165880e-02	1	false	GAMG	1.000000e+00	9.291270e-02	11	true
2             	smoothSolver	3.014330e-01	9.302620e-03	1	3.307420e-01	1.038110e-02	1	false	GAMG	7.431490e-02	6.052970e-03	9	true
3             	smoothSolver	4.884890e-02	1.460400e-03	1	4.499640e-02	1.356390e-03	1	false	GAMG	1.591350e-01	1.171820e-02	5	true
4             	smoothSolver	2.298580e-02	6.827020e-04	1	2.007960e-02	5.955780e-04	1	false	GAMG	3.301120e-01	1.982030e-02	4	true
5             	smoothSolver	1.663490e-02	4.912750e-04	1	1.443970e-02	4.274010e-04	1	false	GAMG	2.966820e-01	2.916680e-02	3	true
6             	smoothSolver	1.306600e-02	3.779690e-04	1	1.198180e-02	3.495760e-04	1	false	GAMG	2.692280e-01	2.459840e-02	3	true
7             	smoothSolver	1.081450e-02	3.098440e-04	1	8.704310e-03	2.523850e-04	1	false	GAMG	2.864680e-01	2.236970e-02	3	true
8             	smoothSolver	8.251520e-03	2.351750e-04	1	7.374830e-03	2.114470e-04	1	false	GAMG	3.226960e-01	2.946330e-02	3	true
9             	smoothSolver	7.193130e-03	2.033480e-04	1	6.894160e-03	1.968460e-04	1	false	GAMG	3.786680e-01	2.543300e-02	3	true
10            	smoothSolver	7.084930e-03	1.994730e-04	1	6.076690e-03	1.714920e-04	1	false	GAMG	3.731350e-01	2.075030e-02	3	true
11            	smoothSolver	6.235430e-03	1.750090e-04	1	5.947910e-03	1.684060e-04	1	false	GAMG	3.642740e-01	2.025190e-02	3	true
12            	smoothSolver	5.932880e-03	1.656010e-04	1	5.198350e-03	1.457750e-04	1	false	GAMG	3.821300e-01	1.868490e-02	3	true
13            	smoothSolver	5.294040e-03	1.477620e-04	1	4.875950e-03	1.366330e-04	1	false	GAMG	4.050960e-01	2.113690e-02	3	true
14            	smoothSolver	4.899400e-03	1.366880e-04	1	4.567400e-03	1.270180e-04	1	false	GAMG	4.500710e-01	2.211200e-02	3	true
15            	smoothSolver	4.609050e-03	1.287200e-04	1	4.293170e-03	1.195390e-04	1	false	GAMG	4.258760e-01	1.914270e-02	3	true
16            	smoothSolver	4.311260e-03	1.202150e-04	1	4.075240e-03	1.130280e-04	1	false	GAMG	3.970970e-01	1.704210e-02	3	true
17            	smoothSolver	4.153380e-03	1.153290e-04	1	3.862850e-03	1.071860e-04	1	false	GAMG	3.862500e-01	1.479050e-02	3	true
18            	smoothSolver	3.912650e-03	1.088890e-04	1	3.636200e-03	1.005980e-04	1	false	GAMG	3.831340e-01	1.427670e-02	3	true
19            	smoothSolver	3.731510e-03	1.036590e-04	1	3.456590e-03	9.580270e-05	1	false	GAMG	3.834140e-01	3.772150e-02	2	true
20            	smoothSolver	3.343090e-03	9.314420e-05	1	3.006930e-03	8.290250e-05	1	false	GAMG	3.637880e-01	3.260810e-02	2	true
21            	smoothSolver	2.957440e-03	8.253380e-05	1	2.466770e-03	6.805640e-05	1	false	GAMG	3.279170e-01	2.729270e-02	2	true
22            	smoothSolver	2.595160e-03	7.285290e-05	1	2.106430e-03	5.790480e-05	1	false	GAMG	3.014040e-01	2.479340e-02	2	true
23            	smoothSolver	2.352300e-03	6.643910e-05	1	1.836290e-03	5.078930e-05	1	false	GAMG	2.687330e-01	2.180780e-02	2	true
24            	smoothSolver	2.190060e-03	6.217250e-05	1	1.636080e-03	4.528140e-05	1	false	GAMG	2.401650e-01	1.925240e-02	2	true
25            	smoothSolver	2.096980e-03	5.968390e-05	1	1.479370e-03	4.118000e-05	1	false	GAMG	1.992050e-01	1.539070e-02	2	true
26            	smoothSolver	2.000050e-03	5.717260e-05	1	1.352240e-03	3.772860e-05	1	false	GAMG	1.616390e-01	1.186840e-02	2	true
27            	smoothSolver	1.925980e-03	5.519310e-05	1	1.260220e-03	3.524080e-05	1	false	GAMG	1.345760e-01	9.385780e-03	2	true
28            	smoothSolver	1.846550e-03	5.314460e-05	1	1.177920e-03	3.298000e-05	1	false	GAMG	1.122950e-01	8.697210e-03	2	true
29            	smoothSolver	1.771560e-03	5.116140e-05	1	1.121910e-03	3.150500e-05	1	false	GAMG	9.935010e-02	2.762640e-03	4	true
30            	smoothSolver	1.706800e-03	4.947400e-05	1	1.096100e-03	3.079600e-05	1	false	GAMG	7.570000e-02	6.010520e-03	2	true
31            	smoothSolver	1.671900e-03	4.847340e-05	1	1.074470e-03	3.029050e-05	1	false	GAMG	6.618730e-02	6.217450e-03	3	true
32            	smoothSolver	1.609510e-03	4.682630e-05	1	1.043470e-03	2.947190e-05	1	false	GAMG	7.537800e-02	6.700610e-03	2	true
33            	smoothSolver	1.578470e-03	4.591040e-05	1	1.024800e-03	2.898950e-05	1	false	GAMG	6.410550e-02	5.920990e-03	2	true
34            	smoothSolver	1.545070e-03	4.503190e-05	1	9.971490e-04	2.823870e-05	1	false	GAMG	5.498540e-02	4.790620e-03	2	true
35            	smoothSolver	1.518460e-03	4.425580e-05	1	9.797740e-04	2.777490e-05	1	false	GAMG	4.624630e-02	4.032400e-03	2	true
36            	smoothSolver	1.487640e-03	4.342380e-05	1	9.617310e-04	2.730530e-05	1	false	GAMG	3.976450e-02	3.520000e-03	2	true
37            	smoothSolver	1.460340e-03	4.263060e-05	1	9.463460e-04	2.689400e-05	1	false	GAMG	3.421070e-02	3.163810e-03	2	true
38            	smoothSolver	1.433940e-03	4.189300e-05	1	9.296850e-04	2.644840e-05	1	false	GAMG	2.978640e-02	2.663440e-03	2	true
39            	smoothSolver	1.416160e-03	4.135410e-05	1	9.171070e-04	2.611550e-05	1	false	GAMG	2.594130e-02	2.221800e-03	2	true
40            	smoothSolver	1.399570e-03	4.086440e-05	1	9.058610e-04	2.582010e-05	1	false	GAMG	2.298210e-02	1.859960e-03	2	true
41            	smoothSolver	1.385860e-03	4.044910e-05	1	8.963500e-04	2.556900e-05	1	false	GAMG	2.055090e-02	1.651110e-03	2	true
42            	smoothSolver	1.370850e-03	4.000990e-05	1	8.867440e-04	2.531710e-05	1	false	GAMG	1.874300e-02	1.593740e-03	2	true
43            	smoothSolver	1.357360e-03	3.961280e-05	1	8.777740e-04	2.510020e-05	1	false	GAMG	1.745870e-02	1.579490e-03	2	true
44            	smoothSolver	1.341370e-03	3.914510e-05	1	8.687690e-04	2.486790e-05	1	false	GAMG	1.643890e-02	1.575290e-03	2	true
45            	smoothSolver	1.326440e-03	3.870670e-05	1	8.610470e-04	2.468330e-05	1	false	GAMG	1.578450e-02	1.374690e-03	2	true
46            	smoothSolver	1.309780e-03	3.822260e-05	1	8.523360e-04	2.446060e-05	1	false	GAMG	1.492770e-02	1.255090e-03	2	true
47            	smoothSolver	1.295910e-03	3.781550e-05	1	8.444150e-04	2.426610e-05	1	false	GAMG	1.429880e-02	1.164460e-03	2	true
48            	smoothSolver	1.280650e-03	3.737440e-05	1	8.354560e-04	2.403740e-05	1	false	GAMG	1.362310e-02	1.111790e-03	2	true
49            	smoothSolver	1.266310e-03	3.695850e-05	1	8.279010e-04	2.384690e-05	1	false	GAMG	1.317890e-02	1.064830e-03	2	true
50            	smoothSolver	1.250990e-03	3.651920e-05	1	8.196960e-04	2.364610e-05	1	false	GAMG	1.264950e-02	1.037320e-03	2	true
51            	smoothSolver	1.235930e-03	3.609090e-05	1	8.128860e-04	2.348340e-05	1	false	GAMG	1.232670e-02	1.038050e-03	2	true
52            	smoothSolver	1.220200e-03	3.564680e-05	1	8.058100e-04	2.331550e-05	1	false	GAMG	1.192000e-02	1.016800e-03	2	true
53            	smoothSolver	1.205120e-03	3.522210e-05	1	7.996960e-04	2.317760e-05	1	false	GAMG	1.166800e-02	9.637210e-04	2	true
54            	smoothSolver	1.190340e-03	3.480380e-05	1	7.934170e-04	2.303710e-05	1	false	GAMG	1.132570e-02	9.256970e-04	2	true
55            	smoothSolver	1.177000e-03	3.442420e-05	1	7.877760e-04	2.292310e-05	1	false	GAMG	1.110470e-02	8.740430e-04	2	true
56            	smoothSolver	1.163930e-03	3.405020e-05	1	7.820690e-04	2.280390e-05	1	false	GAMG	1.084950e-02	8.376630e-04	2	true
57            	smoothSolver	1.151200e-03	3.368590e-05	1	7.770000e-04	2.269290e-05	1	false	GAMG	1.066450e-02	8.015610e-04	2	true
58            	smoothSolver	1.138570e-03	3.332440e-05	1	7.720710e-04	2.257720e-05	1	false	GAMG	1.049480e-02	7.950160e-04	2	true
59            	smoothSolver	1.126120e-03	3.296890e-05	1	7.676580e-04	2.247450e-05	1	false	GAMG	1.037800e-02	8.040270e-04	2	true
60            	smoothSolver	1.113690e-03	3.261420e-05	1	7.634110e-04	2.237270e-05	1	false	GAMG	1.029300e-02	8.067600e-04	2	true
61            	smoothSolver	1.101370e-03	3.226230e-05	1	7.595860e-04	2.227790e-05	1	false	GAMG	1.021640e-02	7.981070e-04	2	true
62            	smoothSolver	1.089180e-03	3.191430e-05	1	7.558380e-04	2.218580e-05	1	false	GAMG	1.014510e-02	7.807400e-04	2	true
63            	smoothSolver	1.077500e-03	3.158410e-05	1	7.523020e-04	2.210920e-05	1	false	GAMG	1.006100e-02	7.609050e-04	2	true
64            	smoothSolver	1.066100e-03	3.126560e-05	1	7.490090e-04	2.205580e-05	1	false	GAMG	9.978900e-03	7.445410e-04	2	true
65            	smoothSolver	1.054780e-03	3.095140e-05	1	7.461490e-04	2.200810e-05	1	false	GAMG	9.901650e-03	7.337520e-04	2	true
66            	smoothSolver	1.043560e-03	3.065820e-05	1	7.435370e-04	2.196560e-05	1	false	GAMG	9.828020e-03	7.357030e-04	2	true
67            	smoothSolver	1.032470e-03	3.039780e-05	1	7.412380e-04	2.192680e-05	1	false	GAMG	9.769460e-03	7.474280e-04	2	true
68            	smoothSolver	1.021480e-03	3.014930e-05	1	7.391440e-04	2.188860e-05	1	false	GAMG	9.708120e-03	7.660420e-04	2	true
69            	smoothSolver	1.010790e-03	2.990720e-05	1	7.370480e-04	2.185290e-05	1	false	GAMG	9.654300e-03	7.824840e-04	2	true
70            	smoothSolver	1.001150e-03	2.967380e-05	1	7.348710e-04	2.181610e-05	1	false	GAMG	9.586610e-03	7.886060e-04	2	true
71            	smoothSolver	9.922420e-04	2.944690e-05	1	7.326890e-04	2.177590e-05	1	false	GAMG	9.517640e-03	7.868420e-04	2	true
72            	smoothSolver	9.839630e-04	2.923030e-05	1	7.307180e-04	2.173310e-05	1	false	GAMG	9.436270e-03	7.835430e-04	2	true
73            	smoothSolver	9.760170e-04	2.901880e-05	1	7.287770e-04	2.169010e-05	1	false	GAMG	9.358820e-03	7.834840e-04	2	true
74            	smoothSolver	9.683500e-04	2.881150e-05	1	7.267750e-04	2.164890e-05	1	false	GAMG	9.280870e-03	7.871770e-04	2	true
75            	smoothSolver	9.609060e-04	2.860820e-05	1	7.248560e-04	2.160840e-05	1	false	GAMG	9.209040e-03	7.930250e-04	2	true
76            	smoothSolver	9.536640e-04	2.840950e-05	1	7.229280e-04	2.156470e-05	1	false	GAMG	9.134050e-03	8.004780e-04	2	true
77            	smoothSolver	9.466040e-04	2.821380e-05	1	7.209540e-04	2.151820e-05	1	false	GAMG	9.056340e-03	8.042410e-04	2	true
78            	smoothSolver	9.396980e-04	2.802120e-05	1	7.190570e-04	2.147040e-05	1	false	GAMG	8.969760e-03	8.053030e-04	2	true
79            	smoothSolver	9.329620e-04	2.783310e-05	1	7.171400e-04	2.142730e-05	1	false	GAMG	8.878930e-03	8.037340e-04	2	true
80            	smoothSolver	9.264030e-04	2.764960e-05	1	7.153180e-04	2.138480e-05	1	false	GAMG	8.779530e-03	7.997890e-04	2	true
81            	smoothSolver	9.200060e-04	2.747090e-05	1	7.134910e-04	2.134130e-05	1	false	GAMG	8.674050e-03	7.940210e-04	2	true
82            	smoothSolver	9.137570e-04	2.729480e-05	1	7.116170e-04	2.129550e-05	1	false	GAMG	8.564120e-03	7.854300e-04	2	true
83            	smoothSolver	9.076000e-04	2.712190e-05	1	7.097450e-04	2.125020e-05	1	false	GAMG	8.447830e-03	7.788300e-04	2	true
84            	smoothSolver	9.015210e-04	2.695130e-05	1	7.080080e-04	2.120660e-05	1	false	GAMG	8.327020e-03	7.723420e-04	2	true
85            	smoothSolver	8.955120e-04	2.678310e-05	1	7.063990e-04	2.116280e-05	1	false	GAMG	8.200130e-03	7.645690e-04	2	true
86            	smoothSolver	8.895580e-04	2.661680e-05	1	7.047330e-04	2.111790e-05	1	false	GAMG	8.067960e-03	7.549040e-04	2	true
87            	smoothSolver	8.836940e-04	2.645300e-05	1	7.030200e-04	2.107160e-05	1	false	GAMG	7.931070e-03	7.428950e-04	2	true
88            	smoothSolver	8.779040e-04	2.629120e-05	1	7.013130e-04	2.102600e-05	1	false	GAMG	7.790820e-03	7.286360e-04	2	true
89            	smoothSolver	8.722080e-04	2.613200e-05	1	6.997050e-04	2.098120e-05	1	false	GAMG	7.648450e-03	7.133120e-04	2	true
90            	smoothSolver	8.666300e-04	2.597550e-05	1	6.981500e-04	2.093750e-05	1	false	GAMG	7.506270e-03	6.973470e-04	2	true
91            	smoothSolver	8.611350e-04	2.582210e-05	1	6.965720e-04	2.089370e-05	1	false	GAMG	7.365580e-03	6.814300e-04	2	true
92            	smoothSolver	8.557600e-04	2.567180e-05	1	6.949640e-04	2.084860e-05	1	false	GAMG	7.227290e-03	6.654950e-04	2	true
93            	smoothSolver	8.504550e-04	2.552450e-05	1	6.933080e-04	2.080530e-05	1	false	GAMG	7.092320e-03	6.497890e-04	2	true
94            	smoothSolver	8.452350e-04	2.537990e-05	1	6.917610e-04	2.076260e-05	1	false	GAMG	6.961590e-03	6.345670e-04	2	true
95            	smoothSolver	8.401250e-04	2.523850e-05	1	6.903380e-04	2.071960e-05	1	false	GAMG	6.833950e-03	6.198950e-04	2	true
96            	smoothSolver	8.351040e-04	2.509940e-05	1	6.888820e-04	2.067560e-05	1	false	GAMG	6.708600e-03	6.060260e-04	2	true
97            	smoothSolver	8.301500e-04	2.496280e-05	1	6.873790e-04	2.063180e-05	1	false	GAMG	6.586930e-03	5.931600e-04	2	true
98            	smoothSolver	8.252820e-04	2.482830e-05	1	6.858550e-04	2.058840e-05	1	false	GAMG	6.469150e-03	5.816860e-04	2	true
99            	smoothSolver	8.204810e-04	2.469580e-05	1	6.844570e-04	2.054550e-05	1	false	GAMG	6.358000e-03	5.713140e-04	2	true
100           	smoothSolver	8.157630e-04	2.456720e-05	1	6.830790e-04	2.050330e-05	1	false	GAMG	6.255480e-03	5.615360e-04	2	true
101           	smoothSolver	8.111190e-04	2.444640e-05	1	6.816220e-04	2.046160e-05	1	false	GAMG	6.156640e-03	5.524750e-04	2	true
102           	smoothSolver	8.065540e-04	2.433200e-05	1	6.801200e-04	2.041860e-05	1	false	GAMG	6.061280e-03	5.439130e-04	2	true
103           	smoothSolver	8.020410e-04	2.422020e-05	1	6.786360e-04	2.037600e-05	1	false	GAMG	5.968520e-03	5.357900e-04	2	true
104           	smoothSolver	7.976490e-04	2.411010e-05	1	6.772280e-04	2.033460e-05	1	false	GAMG	5.876650e-03	5.278310e-04	2	true
105           	smoothSolver	7.934090e-04	2.400270e-05	1	6.758550e-04	2.029510e-05	1	false	GAMG	5.785170e-03	5.200150e-04	2	true
106           	smoothSolver	7.893670e-04	2.389760e-05	1	6.744810e-04	2.025410e-05	1	false	GAMG	5.694580e-03	5.123970e-04	2	true
107           	smoothSolver	7.855580e-04	2.379540e-05	1	6.731140e-04	2.021150e-05	1	false	GAMG	5.604880e-03	5.051080e-04	2	true
108           	smoothSolver	7.819250e-04	2.369410e-05	1	6.717150e-04	2.016950e-05	1	false	GAMG	5.516390e-03	4.982160e-04	2	true
109           	smoothSolver	7.783550e-04	2.359380e-05	1	6.703320e-04	2.012910e-05	1	false	GAMG	5.429320e-03	4.915640e-04	2	true
110           	smoothSolver	7.748670e-04	2.349480e-05	1	6.689750e-04	2.009010e-05	1	false	GAMG	5.343420e-03	4.851320e-04	2	true
111           	smoothSolver	7.714150e-04	2.339720e-05	1	6.675880e-04	2.004990e-05	1	false	GAMG	5.258570e-03	4.789560e-04	2	true
112           	smoothSolver	7.680240e-04	2.330060e-05	1	6.661950e-04	2.000820e-05	1	false	GAMG	5.174970e-03	4.730710e-04	2	true
113           	smoothSolver	7.646740e-04	2.320510e-05	1	6.647980e-04	1.996650e-05	1	false	GAMG	5.092320e-03	4.674250e-04	2	true
114           	smoothSolver	7.613900e-04	2.311100e-05	1	6.634000e-04	1.992610e-05	1	false	GAMG	5.012180e-03	4.619950e-04	2	true
115           	smoothSolver	7.581280e-04	2.301820e-05	1	6.620050e-04	1.988760e-05	1	false	GAMG	4.932670e-03	4.567670e-04	2	true
116           	smoothSolver	7.549140e-04	2.292630e-05	1	6.606490e-04	1.984830e-05	1	false	GAMG	4.853620e-03	4.517080e-04	2	true
117           	smoothSolver	7.517230e-04	2.283520e-05	1	6.592890e-04	1.980760e-05	1	false	GAMG	4.775280e-03	4.467840e-04	2	true
118           	smoothSolver	7.485810e-04	2.274520e-05	1	6.579550e-04	1.976630e-05	1	false	GAMG	4.697990e-03	4.419360e-04	2	true
119           	smoothSolver	7.454690e-04	2.265680e-05	1	6.566080e-04	1.972620e-05	1	false	GAMG	4.621870e-03	4.371250e-04	2	true
120           	smoothSolver	7.424010e-04	2.257000e-05	1	6.552470e-04	1.968690e-05	1	false	GAMG	4.547380e-03	4.323570e-04	2	true
121           	smoothSolver	7.393680e-04	2.248420e-05	1	6.538800e-04	1.964810e-05	1	false	GAMG	4.474680e-03	4.276420e-04	2	true
122           	smoothSolver	7.363860e-04	2.239990e-05	1	6.525410e-04	1.960800e-05	1	false	GAMG	4.403320e-03	4.230090e-04	2	true
123           	smoothSolver	7.334480e-04	2.231650e-05	1	6.512350e-04	1.956720e-05	1	false	GAMG	4.333300e-03	4.185020e-04	2	true
124           	smoothSolver	7.305250e-04	2.223480e-05	1	6.499060e-04	1.952770e-05	1	false	GAMG	4.264710e-03	4.141530e-04	2	true
125           	smoothSolver	7.276370e-04	2.215400e-05	1	6.485580e-04	1.948860e-05	1	false	GAMG	4.197560e-03	4.099230e-04	2	true
126           	smoothSolver	7.247940e-04	2.207380e-05	1	6.471900e-04	1.944940e-05	1	false	GAMG	4.131340e-03	4.058320e-04	2	true
127           	smoothSolver	7.220170e-04	2.199440e-05	1	6.458630e-04	1.941010e-05	1	false	GAMG	4.066310e-03	4.018530e-04	2	true
128           	smoothSolver	7.192950e-04	2.191640e-05	1	6.445930e-04	1.937070e-05	1	false	GAMG	4.002570e-03	3.979410e-04	2	true
129           	smoothSolver	7.166080e-04	2.183950e-05	1	6.433000e-04	1.933230e-05	1	false	GAMG	3.940640e-03	2.558630e-04	3	true
130           	smoothSolver	7.140120e-04	2.176520e-05	1	6.419470e-04	1.929340e-05	1	false	GAMG	3.805440e-03	2.638750e-04	2	true
131           	smoothSolver	7.112860e-04	2.168850e-05	1	6.406310e-04	1.925580e-05	1	false	GAMG	3.760170e-03	3.449340e-04	2	true
132           	smoothSolver	7.086730e-04	2.161350e-05	1	6.393610e-04	1.921880e-05	1	false	GAMG	3.739770e-03	2.157910e-04	3	true
133           	smoothSolver	7.061830e-04	2.154040e-05	1	6.380640e-04	1.917890e-05	1	false	GAMG	3.614090e-03	2.796570e-04	2	true
134           	smoothSolver	7.035910e-04	2.146610e-05	1	6.367900e-04	1.914050e-05	1	false	GAMG	3.608860e-03	2.120560e-04	3	true
135           	smoothSolver	7.011490e-04	2.139460e-05	1	6.354870e-04	1.910270e-05	1	false	GAMG	3.503100e-03	2.739900e-04	2	true
136           	smoothSolver	6.986090e-04	2.132180e-05	1	6.341600e-04	1.906370e-05	1	false	GAMG	3.497520e-03	2.107410e-04	3	true
137           	smoothSolver	6.962450e-04	2.125170e-05	1	6.328570e-04	1.902530e-05	1	false	GAMG	3.400830e-03	2.683300e-04	2	true
138           	smoothSolver	6.937570e-04	2.118030e-05	1	6.315990e-04	1.898720e-05	1	false	GAMG	3.395130e-03	2.071120e-04	3	true
139           	smoothSolver	6.914180e-04	2.111150e-05	1	6.303510e-04	1.895020e-05	1	false	GAMG	3.299940e-03	2.645130e-04	2	true
140           	smoothSolver	6.889780e-04	2.104110e-05	1	6.290660e-04	1.891250e-05	1	false	GAMG	3.297130e-03	2.020530e-04	3	true
141           	smoothSolver	6.866770e-04	2.097340e-05	1	6.277610e-04	1.887500e-05	1	false	GAMG	3.202510e-03	2.608960e-04	2	true
142           	smoothSolver	6.843000e-04	2.090450e-05	1	6.264870e-04	1.883680e-05	1	false	GAMG	3.203510e-03	1.984720e-04	3	true
143           	smoothSolver	6.820550e-04	2.083790e-05	1	6.252480e-04	1.879940e-05	1	false	GAMG	3.111490e-03	2.568420e-04	2	true
144           	smoothSolver	6.797320e-04	2.077010e-05	1	6.240000e-04	1.876200e-05	1	false	GAMG	3.113780e-03	1.954910e-04	3	true
145           	smoothSolver	6.775260e-04	2.070460e-05	1	6.227530e-04	1.872460e-05	1	false	GAMG	3.024430e-03	2.529580e-04	2	true
146           	smoothSolver	6.752510e-04	2.063800e-05	1	6.214740e-04	1.868720e-05	1	false	GAMG	3.027810e-03	1.923870e-04	3	true
147           	smoothSolver	6.730960e-04	2.057360e-05	1	6.202290e-04	1.864990e-05	1	false	GAMG	2.940190e-03	2.494830e-04	2	true
148           	smoothSolver	6.708590e-04	2.050810e-05	1	6.189730e-04	1.861320e-05	1	false	GAMG	2.945930e-03	1.891080e-04	3	true
149           	smoothSolver	6.687230e-04	2.044460e-05	1	6.177350e-04	1.857720e-05	1	false	GAMG	2.859200e-03	2.462810e-04	2	true
150           	smoothSolver	6.665180e-04	2.037950e-05	1	6.164720e-04	1.854090e-05	1	false	GAMG	2.866570e-03	1.860070e-04	3	true
151           	smoothSolver	6.644280e-04	2.031630e-05	1	6.152180e-04	1.850550e-05	1	false	GAMG	2.780850e-03	2.433770e-04	2	true
152           	smoothSolver	6.622680e-04	2.025210e-05	1	6.139830e-04	1.846950e-05	1	false	GAMG	2.790570e-03	1.833820e-04	3	true
153           	smoothSolver	6.602010e-04	2.019000e-05	1	6.127700e-04	1.843440e-05	1	false	GAMG	2.706820e-03	2.406120e-04	2	true
154           	smoothSolver	6.580570e-04	2.012660e-05	1	6.115260e-04	1.839880e-05	1	false	GAMG	2.718580e-03	1.805100e-04	3	true
155           	smoothSolver	6.559970e-04	2.006450e-05	1	6.103050e-04	1.836350e-05	1	false	GAMG	2.635990e-03	2.381140e-04	2	true
156           	smoothSolver	6.538660e-04	2.000090e-05	1	6.090700e-04	1.832740e-05	1	false	GAMG	2.649900e-03	1.775950e-04	3	true
157           	smoothSolver	6.518230e-04	1.993930e-05	1	6.078780e-04	1.829220e-05	1	false	GAMG	2.568460e-03	2.358300e-04	2	true
158           	smoothSolver	6.497260e-04	1.987700e-05	1	6.066660e-04	1.825710e-05	1	false	GAMG	2.583490e-03	1.748390e-04	3	true
159           	smoothSolver	6.477280e-04	1.981660e-05	1	6.054560e-04	1.822260e-05	1	false	GAMG	2.503690e-03	2.336900e-04	2	true
160           	smoothSolver	6.456700e-04	1.975500e-05	1	6.042080e-04	1.818730e-05	1	false	GAMG	2.520630e-03	1.722600e-04	3	true
161           	smoothSolver	6.437160e-04	1.969520e-05	1	6.029970e-04	1.815300e-05	1	false	GAMG	2.442580e-03	2.317660e-04	2	true
162           	smoothSolver	6.417060e-04	1.963500e-05	1	6.017930e-04	1.811800e-05	1	false	GAMG	2.460440e-03	1.697630e-04	3	true
163           	smoothSolver	6.397890e-04	1.957680e-05	1	6.006160e-04	1.808450e-05	1	false	GAMG	2.383410e-03	2.300170e-04	2	true
164           	smoothSolver	6.378110e-04	1.951770e-05	1	5.993940e-04	1.805000e-05	1	false	GAMG	2.402180e-03	1.673240e-04	3	true
165           	smoothSolver	6.359130e-04	1.946020e-05	1	5.982110e-04	1.801620e-05	1	false	GAMG	2.325980e-03	2.283290e-04	2	true
166           	smoothSolver	6.339790e-04	1.940180e-05	1	5.969950e-04	1.798140e-05	1	false	GAMG	2.345450e-03	1.649590e-04	3	true
167           	smoothSolver	6.321340e-04	1.934570e-05	1	5.958420e-04	1.794750e-05	1	false	GAMG	2.270020e-03	2.266330e-04	2	true
168           	smoothSolver	6.302270e-04	1.928860e-05	1	5.946440e-04	1.791350e-05	1	false	GAMG	2.290420e-03	1.626590e-04	3	true
169           	smoothSolver	6.284070e-04	1.923340e-05	1	5.934760e-04	1.788070e-05	1	false	GAMG	2.215840e-03	1.331960e-04	3	true
170           	smoothSolver	6.265680e-04	1.917820e-05	1	5.922920e-04	1.784790e-05	1	false	GAMG	2.178390e-03	1.165890e-04	3	true
171           	smoothSolver	6.247520e-04	1.912300e-05	1	5.910860e-04	1.781410e-05	1	false	GAMG	2.148120e-03	1.207520e-04	3	true
172           	smoothSolver	6.229420e-04	1.906820e-05	1	5.899170e-04	1.778100e-05	1	false	GAMG	2.122130e-03	1.258240e-04	3	true
173           	smoothSolver	6.211700e-04	1.901450e-05	1	5.887350e-04	1.774800e-05	1	false	GAMG	2.098380e-03	1.284060e-04	3	true
174           	smoothSolver	6.194070e-04	1.896100e-05	1	5.875650e-04	1.771560e-05	1	false	GAMG	2.075220e-03	1.273910e-04	3	true
175           	smoothSolver	6.176600e-04	1.890790e-05	1	5.863960e-04	1.768300e-05	1	false	GAMG	2.050300e-03	1.262940e-04	3	true
176           	smoothSolver	6.159260e-04	1.885480e-05	1	5.852450e-04	1.765040e-05	1	false	GAMG	2.025480e-03	1.245600e-04	3	true
177           	smoothSolver	6.142110e-04	1.880240e-05	1	5.841130e-04	1.761740e-05	1	false	GAMG	1.999920e-03	1.242740e-04	3	true
178           	smoothSolver	6.124950e-04	1.875020e-05	1	5.829850e-04	1.758510e-05	1	false	GAMG	1.975680e-03	1.232130e-04	3	true
179           	smoothSolver	6.108070e-04	1.869900e-05	1	5.818420e-04	1.755250e-05	1	false	GAMG	1.950670e-03	1.231890e-04	3	true
180           	smoothSolver	6.091180e-04	1.864800e-05	1	5.806960e-04	1.752010e-05	1	false	GAMG	1.927160e-03	1.220850e-04	3	true
181           	smoothSolver	6.074640e-04	1.859760e-05	1	5.795540e-04	1.748740e-05	1	false	GAMG	1.902580e-03	1.219790e-04	3	true
182           	smoothSolver	6.058090e-04	1.854740e-05	1	5.784400e-04	1.745530e-05	1	false	GAMG	1.879640e-03	1.208290e-04	3	true
183           	smoothSolver	6.041810e-04	1.849790e-05	1	5.773210e-04	1.742330e-05	1	false	GAMG	1.855420e-03	1.207370e-04	3	true
184           	smoothSolver	6.025550e-04	1.844850e-05	1	5.762050e-04	1.739170e-05	1	false	GAMG	1.833450e-03	1.196140e-04	3	true
185           	smoothSolver	6.009500e-04	1.839960e-05	1	5.750730e-04	1.736050e-05	1	false	GAMG	1.809560e-03	1.195500e-04	3	true
186           	smoothSolver	5.993540e-04	1.835080e-05	1	5.739610e-04	1.732940e-05	1	false	GAMG	1.789120e-03	1.184360e-04	3	true
187           	smoothSolver	5.977820e-04	1.830280e-05	1	5.728580e-04	1.729850e-05	1	false	GAMG	1.766300e-03	1.183650e-04	3	true
188           	smoothSolver	5.962100e-04	1.825510e-05	1	5.717650e-04	1.726840e-05	1	false	GAMG	1.746970e-03	1.172430e-04	3	true
189           	smoothSolver	5.946560e-04	1.820800e-05	1	5.706760e-04	1.723850e-05	1	false	GAMG	1.725870e-03	1.171600e-04	3	true
190           	smoothSolver	5.931070e-04	1.816100e-05	1	5.695720e-04	1.720950e-05	1	false	GAMG	1.709140e-03	1.160390e-04	3	true
191           	smoothSolver	5.915870e-04	1.811470e-05	1	5.684830e-04	1.718160e-05	1	false	GAMG	1.690220e-03	1.159310e-04	3	true
192           	smoothSolver	5.900730e-04	1.806830e-05	1	5.674220e-04	1.715410e-05	1	false	GAMG	1.674700e-03	1.148200e-04	3	true
193           	smoothSolver	5.885770e-04	1.802270e-05	1	5.663670e-04	1.712700e-05	1	false	GAMG	1.657060e-03	1.147000e-04	3	true
194           	smoothSolver	5.870810e-04	1.797730e-05	1	5.653260e-04	1.710020e-05	1	false	GAMG	1.643840e-03	1.136050e-04	3	true
195           	smoothSolver	5.856060e-04	1.793240e-05	1	5.643010e-04	1.707290e-05	1	false	GAMG	1.628620e-03	1.134830e-04	3	true
196           	smoothSolver	5.841430e-04	1.788750e-05	1	5.633300e-04	1.704540e-05	1	false	GAMG	1.616070e-03	1.124110e-04	3	true
197           	smoothSolver	5.827020e-04	1.784310e-05	1	5.623920e-04	1.701820e-05	1	false	GAMG	1.601350e-03	1.122840e-04	3	true
198           	smoothSolver	5.812610e-04	1.779890e-05	1	5.614570e-04	1.699120e-05	1	false	GAMG	1.588790e-03	1.112360e-04	3	true
199           	smoothSolver	5.798330e-04	1.775540e-05	1	5.605120e-04	1.696390e-05	1	false	GAMG	1.574450e-03	1.110930e-04	3	true
200           	smoothSolver	5.784120e-04	1.771190e-05	1	5.595520e-04	1.693630e-05	1	false	GAMG	1.561150e-03	1.100780e-04	3	true
201           	smoothSolver	5.770100e-04	1.766900e-05	1	5.586130e-04	1.690820e-05	1	false	GAMG	1.546750e-03	1.099170e-04	3	true
202           	smoothSolver	5.756180e-04	1.762640e-05	1	5.576750e-04	1.688050e-05	1	false	GAMG	1.532690e-03	1.089290e-04	3	true
203           	smoothSolver	5.742360e-04	1.758420e-05	1	5.567430e-04	1.685340e-05	1	false	GAMG	1.518320e-03	1.087620e-04	3	true
204           	smoothSolver	5.728570e-04	1.754240e-05	1	5.558000e-04	1.682620e-05	1	false	GAMG	1.503660e-03	1.078080e-04	3	true
205           	smoothSolver	5.714910e-04	1.750090e-05	1	5.548430e-04	1.679850e-05	1	false	GAMG	1.489340e-03	1.076280e-04	3	true
206           	smoothSolver	5.701350e-04	1.745960e-05	1	5.538910e-04	1.677030e-05	1	false	GAMG	1.474090e-03	1.067010e-04	3	true
207           	smoothSolver	5.687970e-04	1.741860e-05	1	5.529640e-04	1.674250e-05	1	false	GAMG	1.459850e-03	1.065020e-04	3	true
208           	smoothSolver	5.674620e-04	1.737780e-05	1	5.520340e-04	1.671470e-05	1	false	GAMG	1.443880e-03	1.055920e-04	3	true
209           	smoothSolver	5.661360e-04	1.733760e-05	1	5.510990e-04	1.668690e-05	1	false	GAMG	1.429940e-03	1.053750e-04	3	true
210           	smoothSolver	5.648170e-04	1.729750e-05	1	5.501470e-04	1.665890e-05	1	false	GAMG	1.414870e-03	1.044830e-04	3	true
211           	smoothSolver	5.635090e-04	1.725780e-05	1	5.492120e-04	1.663050e-05	1	false	GAMG	1.403280e-03	1.042500e-04	3	true
212           	smoothSolver	5.622090e-04	1.721810e-05	1	5.482740e-04	1.660230e-05	1	false	GAMG	1.391650e-03	1.033800e-04	3	true
213           	smoothSolver	5.609180e-04	1.717850e-05	1	5.473370e-04	1.657430e-05	1	false	GAMG	1.383150e-03	1.031340e-04	3	true
214           	smoothSolver	5.596310e-04	1.713930e-05	1	5.463970e-04	1.654620e-05	1	false	GAMG	1.374040e-03	1.022860e-04	3	true
215           	smoothSolver	5.583500e-04	1.710050e-05	1	5.454470e-04	1.651780e-05	1	false	GAMG	1.367410e-03	1.020270e-04	3	true
216           	smoothSolver	5.570770e-04	1.706180e-05	1	5.445080e-04	1.648930e-05	1	false	GAMG	1.359310e-03	1.012130e-04	3	true
217           	smoothSolver	5.558160e-04	1.702330e-05	1	5.435780e-04	1.646080e-05	1	false	GAMG	1.353370e-03	1.009520e-04	3	true
218           	smoothSolver	5.545630e-04	1.698480e-05	1	5.426400e-04	1.643230e-05	1	false	GAMG	1.346100e-03	1.001640e-04	3	true
219           	smoothSolver	5.533180e-04	1.694670e-05	1	5.416900e-04	1.640360e-05	1	false	GAMG	1.341320e-03	9.989200e-05	3	true
220           	smoothSolver	5.520760e-04	1.690900e-05	1	5.407430e-04	1.637480e-05	1	false	GAMG	1.335260e-03	9.912890e-05	3	true
221           	smoothSolver	5.508390e-04	1.687130e-05	1	5.398060e-04	1.634550e-05	1	false	GAMG	1.331150e-03	9.885150e-05	3	true
222           	smoothSolver	5.496070e-04	1.683380e-05	1	5.388670e-04	1.631680e-05	1	false	GAMG	1.325460e-03	9.811010e-05	3	true
223           	smoothSolver	5.483850e-04	1.679620e-05	1	5.379190e-04	1.628820e-05	1	false	GAMG	1.321880e-03	9.782470e-05	3	true
224           	smoothSolver	5.471700e-04	1.675890e-05	1	5.369600e-04	1.625960e-05	1	false	GAMG	1.316580e-03	9.711510e-05	3	true
225           	smoothSolver	5.459570e-04	1.672200e-05	1	5.359990e-04	1.623070e-05	1	false	GAMG	1.313800e-03	9.682340e-05	3	true
226           	smoothSolver	5.447490e-04	1.668520e-05	1	5.350630e-04	1.620160e-05	1	false	GAMG	1.309700e-03	9.613950e-05	3	true
227           	smoothSolver	5.435440e-04	1.664860e-05	1	5.341370e-04	1.617260e-05	1	false	GAMG	1.307700e-03	9.583460e-05	3	true
228           	smoothSolver	5.423470e-04	1.661190e-05	1	5.332020e-04	1.614370e-05	1	false	GAMG	1.303800e-03	9.518690e-05	3	true
229           	smoothSolver	5.411550e-04	1.657540e-05	1	5.322530e-04	1.611460e-05	1	false	GAMG	1.301770e-03	9.487690e-05	3	true
230           	smoothSolver	5.399620e-04	1.653920e-05	1	5.312980e-04	1.608540e-05	1	false	GAMG	1.297950e-03	9.427320e-05	3	true
231           	smoothSolver	5.387730e-04	1.650310e-05	1	5.303590e-04	1.605610e-05	1	false	GAMG	1.295720e-03	9.394780e-05	3	true
232           	smoothSolver	5.375870e-04	1.646710e-05	1	5.294260e-04	1.602700e-05	1	false	GAMG	1.291700e-03	9.338580e-05	3	true