# Solver information
# Time        	U_solver      	Ux_initial    	Ux_final      	Ux_iters      	Uy_initial    	Uy_final      	Uy_iters      	U_converged   	p_solver      	p_initial     	p_final       	p_iters       	p_converged   
0.00011236    	smoothSolver	1.000000e+00	9.110630e-06	23	1.000000e+00	7.812950e-06	24	false	GAMG	1.000000e+00	4.179710e-03	8	true
0.000203072   	smoothSolver	6.675720e-02	8.886120e-06	11	2.865790e-01	9.455840e-06	14	false	GAMG	3.437520e-01	2.481680e-03	7	true
0.000282722   	smoothSolver	3.044650e-02	7.913680e-06	9	1.036420e-01	6.111850e-06	12	false	GAMG	5.874570e-01	3.047580e-03	6	true
0.000366491   	smoothSolver	8.354100e-03	8.532050e-06	8	3.130850e-02	6.740450e-06	9	false	GAMG	7.265310e-01	7.162520e-03	4	true
0.000452505   	smoothSolver	1.597150e-03	7.962400e-06	7	7.683440e-03	6.469210e-06	10	false	GAMG	9.216190e-01	5.959360e-03	3	true
0.000540096   	smoothSolver	2.390910e-03	8.792360e-06	7	1.032770e-02	5.272980e-06	8	false	GAMG	8.182980e-01	4.480060e-03	3	true
0.000629341   	smoothSolver	1.529120e-03	5.578480e-06	7	8.092410e-03	7.365480e-06	9	false	GAMG	8.390600e-01	4.544940e-03	2	true
0.000720318   	smoothSolver	1.420280e-03	6.364710e-06	7	7.296050e-03	7.206190e-06	8	false	GAMG	7.686170e-01	6.700070e-03	2	true
0.000813115   	smoothSolver	1.207270e-03	8.664060e-06	6	6.841080e-03	6.106310e-06	9	false	GAMG	7.268170e-01	4.842600e-03	3	true
0.000907825   	smoothSolver	1.096490e-03	9.244450e-06	6	6.291600e-03	7.996020e-06	8	false	GAMG	6.626030e-01	3.503930e-03	3	true
0.00100353    	smoothSolver	9.935280e-04	7.592880e-06	6	6.009140e-03	9.394930e-06	8	false	GAMG	5.937480e-01	3.208240e-03	3	true
0.00110027    	smoothSolver	9.157350e-04	7.603100e-06	6	5.642940e-03	7.826610e-06	8	false	GAMG	5.244050e-01	4.347610e-03	2	true
0.00119807    	smoothSolver	8.419120e-04	6.686400e-06	6	5.410690e-03	8.466100e-06	8	false	GAMG	4.412310e-01	2.703860e-03	3	true
0.00129697    	smoothSolver	7.990160e-04	6.569400e-06	6	5.216010e-03	7.561190e-06	8	false	GAMG	3.765960e-01	2.956860e-03	3	true
0.001397      	smoothSolver	7.470120e-04	6.020320e-06	6	5.039380e-03	7.856320e-06	8	false	GAMG	2.971630e-01	2.658190e-03	3	true
0.00149821    	smoothSolver	7.110430e-04	5.892630e-06	6	4.855120e-03	7.382230e-06	8	false	GAMG	2.518170e-01	1.408630e-03	4	true
0.00160064    	smoothSolver	6.761920e-04	9.621120e-06	5	4.755330e-03	7.514350e-06	8	false	GAMG	1.927320e-01	1.028470e-03	5	true
0.00170434    	smoothSolver	6.421670e-04	9.445220e-06	5	4.562260e-03	7.242690e-06	8	false	GAMG	1.646720e-01	1.492500e-03	4	true
0.00180935    	smoothSolver	6.165600e-04	9.017050e-06	5	4.479890e-03	7.354360e-06	8	false	GAMG	1.269350e-01	7.509590e-04	5	true
0.00191436    	smoothSolver	5.878840e-04	8.462490e-06	5	4.319350e-03	6.812910e-06	8	false	GAMG	1.095570e-01	7.141760e-04	5	true
0.00202075    	smoothSolver	5.677880e-04	8.192610e-06	5	4.247000e-03	6.908800e-06	8	false	GAMG	8.608160e-02	6.722940e-04	5	true
0.00212857    	smoothSolver	5.505560e-04	8.058930e-06	5	4.165710e-03	6.874530e-06	8	false	GAMG	7.990070e-02	6.516170e-04	5	true
0.0022364     	smoothSolver	5.268700e-04	7.530060e-06	5	4.051300e-03	6.567300e-06	8	false	GAMG	6.403880e-02	5.754600e-04	5	true
0.00234575    	smoothSolver	5.137220e-04	7.436130e-06	5	3.997560e-03	6.597440e-06	8	false	GAMG	6.366930e-02	5.904750e-04	5	true
0.00245509    	smoothSolver	4.936480e-04	6.989610e-06	5	3.893950e-03	6.302770e-06	8	false	GAMG	5.327120e-02	5.241320e-04	5	true
0.00256605    	smoothSolver	4.834580e-04	6.934630e-06	5	3.854000e-03	6.381780e-06	8	false	GAMG	5.483810e-02	5.477030e-04	5	true
0.002677      	smoothSolver	4.662120e-04	6.548870e-06	5	3.760150e-03	6.104870e-06	8	false	GAMG	4.788370e-02	2.364150e-04	6	true
0.00278967    	smoothSolver	4.582290e-04	6.530910e-06	5	3.732890e-03	6.223700e-06	8	false	GAMG	4.951010e-02	2.513040e-04	6	true
0.00290233    	smoothSolver	4.430450e-04	6.193400e-06	5	3.648810e-03	5.961690e-06	8	false	GAMG	4.344730e-02	2.189020e-04	6	true
0.00301681    	smoothSolver	4.366630e-04	6.206960e-06	5	3.631970e-03	6.116290e-06	8	false	GAMG	4.361180e-02	2.256280e-04	6	true
0.00313128    	smoothSolver	4.232090e-04	5.903560e-06	5	3.555130e-03	9.912810e-06	7	false	GAMG	3.900500e-02	2.091270e-04	6	true
0.00324576    	smoothSolver	4.111100e-04	9.833990e-06	4	3.484890e-03	9.534300e-06	7	false	GAMG	5.698560e-02	3.697160e-04	6	true
0.00336221    	smoothSolver	4.013290e-04	9.974140e-06	4	3.422350e-03	9.827260e-06	7	false	GAMG	4.874260e-02	4.422700e-04	5	true
0.00347867    	smoothSolver	3.920920e-04	9.542870e-06	4	3.370810e-03	9.467160e-06	7	false	GAMG	4.745400e-02	4.633630e-04	5	true
0.00359512    	smoothSolver	3.823020e-04	9.154140e-06	4	3.311450e-03	9.116570e-06	7	false	GAMG	4.426370e-02	4.292580e-04	5	true
0.00371373    	smoothSolver	3.802290e-04	9.267190e-06	4	3.318180e-03	9.476080e-06	7	false	GAMG	4.488300e-02	2.173440e-04	6	true
0.00383234    	smoothSolver	3.709460e-04	8.908280e-06	4	3.260880e-03	9.142060e-06	7	false	GAMG	4.244830e-02	4.037630e-04	5	true
0.00395095    	smoothSolver	3.626730e-04	8.566680e-06	4	3.211450e-03	8.828900e-06	7	false	GAMG	4.105520e-02	3.878170e-04	5	true
0.00406956    	smoothSolver	3.548130e-04	8.246320e-06	4	3.163510e-03	8.528640e-06	7	false	GAMG	3.918060e-02	3.701020e-04	5	true
0.00418816    	smoothSolver	3.473820e-04	7.944000e-06	4	3.117620e-03	8.245510e-06	7	false	GAMG	3.810560e-02	3.548340e-04	5	true
0.00430924    	smoothSolver	3.474180e-04	8.133760e-06	4	3.137290e-03	8.676290e-06	7	false	GAMG	3.818870e-02	3.777500e-04	5	true
0.00443032    	smoothSolver	3.399440e-04	7.851560e-06	4	3.087750e-03	8.400700e-06	7	false	GAMG	3.656920e-02	3.299680e-04	5	true
0.0045514     	smoothSolver	3.336120e-04	7.575030e-06	4	3.047670e-03	8.133710e-06	7	false	GAMG	3.516730e-02	3.246780e-04	5	true
0.00467248    	smoothSolver	3.273720e-04	7.315690e-06	4	3.007480e-03	7.881100e-06	7	false	GAMG	3.405650e-02	3.097650e-04	5	true
0.00479356    	smoothSolver	3.214730e-04	7.069300e-06	4	2.969890e-03	7.639600e-06	7	false	GAMG	3.284680e-02	2.981400e-04	5	true
0.00491753    	smoothSolver	3.233290e-04	7.322900e-06	4	3.003210e-03	8.156150e-06	7	false	GAMG	3.340520e-02	3.251030e-04	5	true
0.00504149    	smoothSolver	3.171370e-04	7.090760e-06	4	2.960770e-03	7.915280e-06	7	false	GAMG	3.210480e-02	2.791200e-04	5	true
0.00516545    	smoothSolver	3.119480e-04	6.861150e-06	4	2.927270e-03	7.679060e-06	7	false	GAMG	3.111520e-02	2.772870e-04	5	true
0.00528941    	smoothSolver	3.067760e-04	6.645960e-06	4	2.892790e-03	7.454950e-06	7	false	GAMG	3.007370e-02	2.648090e-04	5	true
0.00541338    	smoothSolver	3.018800e-04	6.440110e-06	4	2.860620e-03	7.240530e-06	7	false	GAMG	2.913880e-02	2.558970e-04	5	true
0.00553734    	smoothSolver	2.971810e-04	6.244020e-06	4	2.829520e-03	7.034980e-06	7	false	GAMG	2.828060e-02	2.466390e-04	5	true
0.00566484    	smoothSolver	3.010230e-04	6.578200e-06	4	2.879280e-03	7.672410e-06	7	false	GAMG	2.907730e-02	2.783710e-04	5	true
0.00579235    	smoothSolver	2.958960e-04	6.389970e-06	4	2.842740e-03	7.463240e-06	7	false	GAMG	2.797900e-02	2.324660e-04	5	true
0.00591985    	smoothSolver	2.917620e-04	6.198490e-06	4	2.815710e-03	7.254220e-06	7	false	GAMG	2.713100e-02	2.339910e-04	5	true
0.00604736    	smoothSolver	2.875750e-04	6.018460e-06	4	2.787210e-03	7.055640e-06	7	false	GAMG	2.636080e-02	2.235890e-04	5	true
0.00617486    	smoothSolver	2.836030e-04	5.845370e-06	4	2.760120e-03	6.864640e-06	7	false	GAMG	2.563300e-02	2.168380e-04	5	true
0.00630237    	smoothSolver	2.797590e-04	5.680110e-06	4	2.733510e-03	6.680870e-06	7	false	GAMG	2.493030e-02	2.095660e-04	5	true
0.00642987    	smoothSolver	2.760580e-04	5.521780e-06	4	2.707650e-03	6.504160e-06	7	false	GAMG	2.427140e-02	2.028910e-04	5	true
0.00655738    	smoothSolver	2.724870e-04	9.835460e-06	3	2.682490e-03	6.333780e-06	7	false	GAMG	4.230400e-02	2.608200e-04	6	true
0.00668488    	smoothSolver	2.642760e-04	9.734820e-06	3	2.604410e-03	6.204180e-06	7	false	GAMG	3.855020e-02	2.087290e-04	5	true
0.00681239    	smoothSolver	2.624700e-04	9.474250e-06	3	2.596320e-03	6.040690e-06	7	false	GAMG	3.685890e-02	2.757760e-04	5	true
0.00693989    	smoothSolver	2.591570e-04	9.263040e-06	3	2.571240e-03	5.889380e-06	7	false	GAMG	3.612430e-02	2.498540e-04	5	true
0.00707294    	smoothSolver	2.674550e-04	5.570980e-06	4	2.661980e-03	6.841560e-06	7	false	GAMG	2.088140e-02	1.564960e-04	4	true
0.00720599    	smoothSolver	2.684700e-04	9.721240e-06	3	2.685610e-03	6.632470e-06	7	false	GAMG	4.000770e-02	2.690270e-04	6	true
0.00733904    	smoothSolver	2.593980e-04	9.671820e-06	3	2.596540e-03	6.519650e-06	7	false	GAMG	3.674590e-02	1.736210e-04	5	true
0.00747208    	smoothSolver	2.581730e-04	9.410920e-06	3	2.593510e-03	6.348450e-06	7	false	GAMG	3.473830e-02	2.572700e-04	5	true
0.00760513    	smoothSolver	2.550680e-04	9.210970e-06	3	2.568530e-03	6.192630e-06	7	false	GAMG	3.420620e-02	2.277910e-04	5	true
0.00773818    	smoothSolver	2.525330e-04	9.001730e-06	3	2.549920e-03	6.045280e-06	7	false	GAMG	3.314570e-02	2.273840e-04	5	true
0.00787123    	smoothSolver	2.499570e-04	8.805160e-06	3	2.530150e-03	5.897240e-06	7	false	GAMG	3.266050e-02	2.202030e-04	5	true
0.00800428    	smoothSolver	2.474730e-04	8.612120e-06	3	2.511250e-03	9.848300e-06	6	false	GAMG	2.999540e-02	2.370560e-04	5	true
0.00813732    	smoothSolver	2.448520e-04	8.427900e-06	3	2.490960e-03	9.662760e-06	6	false	GAMG	2.968840e-02	2.165070e-04	5	true
0.00827037    	smoothSolver	2.425610e-04	8.247420e-06	3	2.473480e-03	9.443200e-06	6	false	GAMG	2.885440e-02	2.146130e-04	5	true
0.00840342    	smoothSolver	2.402610e-04	8.073540e-06	3	2.455790e-03	9.238090e-06	6	false	GAMG	2.831420e-02	2.085030e-04	5	true
0.00853647    	smoothSolver	2.380410e-04	7.904740e-06	3	2.438760e-03	9.036800e-06	6	false	GAMG	2.766370e-02	2.037330e-04	5	true
0.00866952    	smoothSolver	2.358760e-04	7.741500e-06	3	2.421930e-03	8.841240e-06	6	false	GAMG	2.711420e-02	1.988460e-04	5	true
0.00880257    	smoothSolver	2.337680e-04	7.583660e-06	3	2.405380e-03	8.651260e-06	6	false	GAMG	2.652780e-02	1.942210e-04	5	true
0.00893561    	smoothSolver	2.317160e-04	7.431040e-06	3	2.389170e-03	8.466060e-06	6	false	GAMG	2.600720e-02	1.897310e-04	5	true
0.00906866    	smoothSolver	2.297150e-04	7.282640e-06	3	2.373500e-03	8.286380e-06	6	false	GAMG	2.546570e-02	1.854090e-04	5	true
0.00920171    	smoothSolver	2.277660e-04	7.138490e-06	3	2.358190e-03	8.111240e-06	6	false	GAMG	2.495920e-02	1.812340e-04	5	true
0.00933476    	smoothSolver	2.258650e-04	6.998400e-06	3	2.343120e-03	7.941140e-06	6	false	GAMG	2.445020e-02	1.772070e-04	5	true
0.00946781    	smoothSolver	2.240140e-04	6.862300e-06	3	2.328310e-03	7.775280e-06	6	false	GAMG	2.397680e-02	1.733170e-04	5	true
0.00960086    	smoothSolver	2.222120e-04	6.729910e-06	3	2.313820e-03	7.614010e-06	6	false	GAMG	2.350370e-02	1.695570e-04	5	true
0.0097339     	smoothSolver	2.204590e-04	6.601180e-06	3	2.299620e-03	7.456770e-06	6	false	GAMG	2.305570e-02	1.659280e-04	5	true
0.00986695    	smoothSolver	2.187430e-04	6.475940e-06	3	2.285730e-03	7.303700e-06	6	false	GAMG	2.262540e-02	1.624260e-04	5	true
0.01          	smoothSolver	2.170660e-04	6.354090e-06	3	2.272120e-03	7.154420e-06	6	false	GAMG	2.220010e-02	1.590020e-04	5	true
0.010137      	smoothSolver	2.217910e-04	6.731040e-06	3	2.325320e-03	7.836750e-06	6	false	GAMG	2.296250e-02	1.854730e-04	5	true
0.010274      	smoothSolver	2.196870e-04	6.617540e-06	3	2.306660e-03	7.688240e-06	6	false	GAMG	2.243500e-02	1.522200e-04	5	true
0.010411      	smoothSolver	2.181630e-04	6.490680e-06	3	2.294220e-03	7.526590e-06	6	false	GAMG	2.205570e-02	1.563980e-04	5	true
0.0105479     	smoothSolver	2.165180e-04	6.371250e-06	3	2.280180e-03	7.373990e-06	6	false	GAMG	2.170460e-02	1.514580e-04	5	true
0.0106849     	smoothSolver	2.149490e-04	6.253930e-06	3	2.266840e-03	7.223930e-06	6	false	GAMG	2.116120e-02	1.488110e-04	5	true
0.0108219     	smoothSolver	2.134050e-04	6.140020e-06	3	2.253550e-03	7.077850e-06	6	false	GAMG	2.075770e-02	1.457700e-04	5	true
0.010961      	smoothSolver	2.150980e-04	6.271760e-06	3	2.274330e-03	7.345700e-06	6	false	GAMG	2.093160e-02	1.570080e-04	5	true
0.0111        	smoothSolver	2.133820e-04	6.165550e-06	3	2.258920e-03	7.203680e-06	6	false	GAMG	2.051570e-02	1.399360e-04	5	true
0.0112391     	smoothSolver	2.119550e-04	6.053910e-06	3	2.246640e-03	7.056560e-06	6	false	GAMG	2.011990e-02	1.407690e-04	5	true
0.0113782     	smoothSolver	2.104870e-04	5.947060e-06	3	2.233770e-03	6.915650e-06	6	false	GAMG	1.977470e-02	1.372010e-04	5	true
0.0115172     	smoothSolver	2.090670e-04	5.842260e-06	3	2.221330e-03	6.777480e-06	6	false	GAMG	1.942760e-02	1.348500e-04	5	true
0.0116563     	smoothSolver	2.076700e-04	5.740220e-06	3	2.208990e-03	6.642740e-06	6	false	GAMG	1.907920e-02	1.323000e-04	5	true
0.0117954     	smoothSolver	2.063050e-04	5.640610e-06	3	2.196750e-03	6.511190e-06	6	false	GAMG	1.882640e-02	1.299350e-04	5	true
0.0119344     	smoothSolver	2.049690e-04	5.543400e-06	3	2.184600e-03	6.382760e-06	6	false	GAMG	1.852520e-02	1.275090e-04	5	true
0.0120735     	smoothSolver	2.036650e-04	5.448530e-06	3	2.172660e-03	6.257410e-06	6	false	GAMG	1.814600e-02	1.252600e-04	5	true
0.0122125     	smoothSolver	2.023860e-04	5.355930e-06	3	2.160810e-03	6.134990e-06	6	false	GAMG	1.782340e-02	1.230770e-04	5	true
0.0123516     	smoothSolver	2.011310e-04	5.265500e-06	3	2.149080e-03	6.015470e-06	6	false	GAMG	1.752240e-02	1.209390e-04	5	true
0.0124932     	smoothSolver	2.035920e-04	5.434630e-06	3	2.176960e-03	6.330240e-06	6	false	GAMG	1.785030e-02	1.332210e-04	5	true
0.0126349     	smoothSolver	2.021400e-04	5.350230e-06	3	2.162920e-03	6.213660e-06	6	false	GAMG	1.754670e-02	1.164550e-04	5	true
0.0127765     	smoothSolver	2.009710e-04	5.259040e-06	3	2.151970e-03	6.090090e-06	6	false	GAMG	1.714610e-02	1.181590e-04	5	true
0.0129181     	smoothSolver	1.997500e-04	5.172140e-06	3	2.140400e-03	5.972340e-06	6	false	GAMG	1.688090e-02	1.152360e-04	5	true
0.0130598     	smoothSolver	1.985680e-04	5.086720e-06	3	2.129470e-03	5.856460e-06	6	false	GAMG	1.662160e-02	1.135790e-04	5	true
0.0132014     	smoothSolver	1.974000e-04	5.003430e-06	3	2.118710e-03	5.743480e-06	6	false	GAMG	1.636030e-02	1.116540e-04	5	true
0.0133431     	smoothSolver	1.962560e-04	4.922020e-06	3	2.108050e-03	5.633030e-06	6	false	GAMG	1.608860e-02	1.098800e-04	5	true
0.0134847     	smoothSolver	1.951300e-04	4.842560e-06	3	2.097480e-03	9.927210e-06	5	false	GAMG	1.478050e-02	1.314460e-04	5	true
0.0136263     	smoothSolver	1.938540e-04	9.992090e-06	2	2.085770e-03	9.801900e-06	5	false	GAMG	2.965590e-02	1.613180e-04	6	true
0.013768      	smoothSolver	1.891200e-04	4.834530e-06	3	2.033290e-03	9.804280e-06	5	false	GAMG	1.555150e-02	8.026090e-05	6	true
0.0139096     	smoothSolver	1.928830e-04	9.664320e-06	2	2.077400e-03	9.395720e-06	5	false	GAMG	2.878310e-02	1.833570e-04	6	true
0.0140512     	smoothSolver	1.869570e-04	9.822540e-06	2	2.011690e-03	9.474180e-06	5	false	GAMG	2.786790e-02	2.359380e-04	4	true
0.0141929     	smoothSolver	1.871290e-04	9.639760e-06	2	2.014840e-03	9.244390e-06	5	false	GAMG	2.611550e-02	1.534470e-04	5	true
0.0143345     	smoothSolver	1.860100e-04	9.525640e-06	2	2.003000e-03	9.096530e-06	5	false	GAMG	2.607890e-02	1.404530e-04	5	true
0.0144762     	smoothSolver	1.851550e-04	9.400250e-06	2	1.994480e-03	8.937930e-06	5	false	GAMG	2.559880e-02	1.410480e-04	5	true
0.0146178     	smoothSolver	1.842630e-04	9.281130e-06	2	1.985310e-03	8.779640e-06	5	false	GAMG	2.528100e-02	1.386030e-04	5	true
0.0147594     	smoothSolver	1.833940e-04	9.162380e-06	2	1.976490e-03	8.630160e-06	5	false	GAMG	2.495870e-02	1.368940e-04	5	true
0.0149011     	smoothSolver	1.825340e-04	9.046660e-06	2	1.967620e-03	8.478980e-06	5	false	GAMG	2.464610e-02	1.350130e-04	5	true
0.0150427     	smoothSolver	1.816840e-04	8.932290e-06	2	1.958860e-03	8.335010e-06	5	false	GAMG	2.418520e-02	1.332860e-04	5	true
0.0151843     	smoothSolver	1.808460e-04	8.820370e-06	2	1.950090e-03	8.190750e-06	5	false	GAMG	2.387310e-02	1.316010e-04	5	true
0.015326      	smoothSolver	1.800160e-04	8.709930e-06	2	1.941410e-03	8.052120e-06	5	false	GAMG	2.351600e-02	1.299190e-04	5	true
0.015472      	smoothSolver	1.847880e-04	9.228230e-06	2	1.992970e-03	8.827090e-06	5	false	GAMG	2.429250e-02	1.520970e-04	5	true
0.0156181     	smoothSolver	1.835860e-04	9.133800e-06	2	1.980020e-03	8.700550e-06	5	false	GAMG	2.392450e-02	1.252600e-04	5	true
0.0157642     	smoothSolver	1.828360e-04	9.014490e-06	2	1.971970e-03	8.541960e-06	5	false	GAMG	2.354750e-02	1.290920e-04	5	true
0.0159102     	smoothSolver	1.819850e-04	8.902780e-06	2	1.962810e-03	8.397400e-06	5	false	GAMG	2.327510e-02	1.262690e-04	5	true
0.0160563     	smoothSolver	1.811710e-04	8.791870e-06	2	1.954020e-03	8.252140e-06	5	false	GAMG	2.296850e-02	1.249600e-04	5	true
0.0162024     	smoothSolver	1.803610e-04	8.683000e-06	2	1.945310e-03	8.111550e-06	5	false	GAMG	2.259650e-02	1.233990e-04	5	true
0.0163484     	smoothSolver	1.795640e-04	8.576140e-06	2	1.936690e-03	7.972760e-06	5	false	GAMG	2.230020e-02	1.219510e-04	5	true
0.0164945     	smoothSolver	1.787750e-04	8.471000e-06	2	1.928210e-03	7.837590e-06	5	false	GAMG	2.204060e-02	1.205320e-04	5	true
0.0166405     	smoothSolver	1.779960e-04	8.367830e-06	2	1.919730e-03	7.704510e-06	5	false	GAMG	2.181830e-02	1.190900e-04	5	true
0.0167866     	smoothSolver	1.772270e-04	8.266500e-06	2	1.911310e-03	7.574630e-06	5	false	GAMG	2.148060e-02	1.176780e-04	5	true
0.0169327     	smoothSolver	1.764700e-04	8.167310e-06	2	1.902920e-03	7.446860e-06	5	false	GAMG	2.116300e-02	1.163850e-04	5	true
0.0170787     	smoothSolver	1.757220e-04	8.069710e-06	2	1.894650e-03	7.321990e-06	5	false	GAMG	2.087850e-02	1.150570e-04	5	true
0.0172248     	smoothSolver	1.749820e-04	7.973700e-06	2	1.886570e-03	7.199290e-06	5	false	GAMG	2.060260e-02	1.137880e-04	5	true
0.0173709     	smoothSolver	1.742510e-04	7.879220e-06	2	1.878590e-03	7.079280e-06	5	false	GAMG	2.033320e-02	1.125310e-04	5	true
0.0175169     	smoothSolver	1.735280e-04	7.786310e-06	2	1.870660e-03	6.961410e-06	5	false	GAMG	2.007720e-02	1.113080e-04	5	true
0.017663      	smoothSolver	1.728140e-04	7.694820e-06	2	1.862800e-03	6.846030e-06	5	false	GAMG	1.982330e-02	1.101150e-04	5	true
0.0178091     	smoothSolver	1.721090e-04	7.604820e-06	2	1.855010e-03	6.732760e-06	5	false	GAMG	1.957280e-02	1.089400e-04	5	true
0.0179551     	smoothSolver	1.714150e-04	7.516210e-06	2	1.847290e-03	6.621790e-06	5	false	GAMG	1.934390e-02	1.078000e-04	5	true
0.0181012     	smoothSolver	1.707300e-04	7.429090e-06	2	1.839630e-03	6.512910e-06	5	false	GAMG	1.910320e-02	1.066750e-04	5	true
0.0182472     	smoothSolver	1.700530e-04	7.343280e-06	2	1.832080e-03	6.406210e-06	5	false	GAMG	1.887380e-02	1.055890e-04	5	true
0.0183933     	smoothSolver	1.693830e-04	7.258830e-06	2	1.824580e-03	6.301470e-06	5	false	GAMG	1.866340e-02	1.045090e-04	5	true
0.0185394     	smoothSolver	1.687200e-04	7.175670e-06	2	1.817100e-03	6.198800e-06	5	false	GAMG	1.841910e-02	1.034670e-04	5	true
0.0186854     	smoothSolver	1.680650e-04	7.093870e-06	2	1.809660e-03	6.098030e-06	5	false	GAMG	1.816010e-02	1.024520e-04	5	true
0.0188315     	smoothSolver	1.674180e-04	7.013350e-06	2	1.802210e-03	5.999260e-06	5	false	GAMG	1.800930e-02	1.015070e-04	5	true
0.0189776     	smoothSolver	1.667770e-04	6.934090e-06	2	1.794790e-03	5.902330e-06	5	false	GAMG	1.779760e-02	1.004290e-04	5	true
0.0191236     	smoothSolver	1.661430e-04	6.855980e-06	2	1.787470e-03	5.807260e-06	5	false	GAMG	1.754850e-02	9.954310e-05	5	true
0.0192697     	smoothSolver	1.655170e-04	6.779080e-06	2	1.780130e-03	5.713980e-06	5	false	GAMG	1.734500e-02	9.859040e-05	5	true
0.0194157     	smoothSolver	1.648970e-04	6.703360e-06	2	1.772860e-03	5.622490e-06	5	false	GAMG	1.711130e-02	9.769070e-05	5	true
0.0195618     	smoothSolver	1.642840e-04	6.628860e-06	2	1.765620e-03	5.532740e-06	5	false	GAMG	1.693610e-02	9.678410e-05	5	true
0.0197079     	smoothSolver	1.636770e-04	6.555480e-06	2	1.758470e-03	5.444690e-06	5	false	GAMG	1.675200e-02	9.594920e-05	5	true
0.0198539     	smoothSolver	1.630740e-04	6.483260e-06	2	1.751380e-03	5.358290e-06	5	false	GAMG	1.660690e-02	9.514210e-05	5	true
0.02          	smoothSolver	1.624810e-04	6.412190e-06	2	1.744320e-03	5.273520e-06	5	false	GAMG	1.642610e-02	9.416800e-05	5	true
0.0201471     	smoothSolver	1.629920e-04	6.443650e-06	2	1.749210e-03	5.319370e-06	5	false	GAMG	1.628540e-02	9.706700e-05	5	true
0.0202941     	smoothSolver	1.623520e-04	6.377180e-06	2	1.741710e-03	5.239010e-06	5	false	GAMG	1.609940e-02	9.243380e-05	5	true
0.0204412     	smoothSolver	1.617840e-04	6.307470e-06	2	1.734890e-03	5.155210e-06	5	false	GAMG	1.591140e-02	9.245880e-05	5	true
0.0205905     	smoothSolver	1.637180e-04	6.469420e-06	2	1.754880e-03	5.366550e-06	5	false	GAMG	1.607950e-02	9.966100e-05	5	true
0.0207399     	smoothSolver	1.630170e-04	6.407620e-06	2	1.746580e-03	5.290030e-06	5	false	GAMG	1.589850e-02	9.036380e-05	5	true
0.0208892     	smoothSolver	1.624660e-04	6.336730e-06	2	1.739800e-03	5.203560e-06	5	false	GAMG	1.569240e-02	9.142780e-05	5	true
0.0210386     	smoothSolver	1.618860e-04	6.269010e-06	2	1.732690e-03	9.952280e-06	4	false	GAMG	1.424860e-02	1.112520e-04	5	true
0.021188      	smoothSolver	1.611860e-04	6.205210e-06	2	1.725080e-03	9.877100e-06	4	false	GAMG	1.438730e-02	1.002040e-04	5	true
0.0213373     	smoothSolver	1.606560e-04	6.137880e-06	2	1.718330e-03	9.719730e-06	4	false	GAMG	1.419700e-02	1.012810e-04	5	true
0.0214867     	smoothSolver	1.600940e-04	6.072760e-06	2	1.711480e-03	9.582400e-06	4	false	GAMG	1.395990e-02	9.993340e-05	5	true
0.021636      	smoothSolver	1.595480e-04	6.008570e-06	2	1.704810e-03	9.441410e-06	4	false	GAMG	1.381740e-02	9.916310e-05	5	true
0.0217854     	smoothSolver	1.590060e-04	5.945190e-06	2	1.698230e-03	9.305600e-06	4	false	GAMG	1.366140e-02	9.827780e-05	5	true
0.0219347     	smoothSolver	1.584700e-04	5.882890e-06	2	1.691720e-03	9.170180e-06	4	false	GAMG	1.352940e-02	9.744990e-05	5	true
0.0220841     	smoothSolver	1.579390e-04	5.821410e-06	2	1.685270e-03	9.038370e-06	4	false	GAMG	1.339770e-02	9.662800e-05	5	true
0.0222335     	smoothSolver	1.574130e-04	5.760980e-06	2	1.678890e-03	8.907750e-06	4	false	GAMG	1.326230e-02	9.579830e-05	5	true
0.0223828     	smoothSolver	1.568930e-04	5.701310e-06	2	1.672540e-03	8.780100e-06	4	false	GAMG	1.317810e-02	9.507700e-05	5	true
0.0225322     	smoothSolver	1.563770e-04	5.642550e-06	2	1.666170e-03	8.653970e-06	4	false	GAMG	1.304630e-02	9.417870e-05	5	true
0.0226815     	smoothSolver	1.558650e-04	5.584550e-06	2	1.659890e-03	8.530370e-06	4	false	GAMG	1.287390e-02	9.347960e-05	5	true
0.0228309     	smoothSolver	1.553600e-04	5.527420e-06	2	1.653580e-03	8.408500e-06	4	false	GAMG	1.274390e-02	9.272610e-05	5	true
0.0229802     	smoothSolver	1.548590e-04	5.471060e-06	2	1.647300e-03	8.288950e-06	4	false	GAMG	1.256220e-02	9.199800e-05	5	true
0.0231296     	smoothSolver	1.543640e-04	5.415540e-06	2	1.641050e-03	8.171140e-06	4	false	GAMG	1.244040e-02	9.127740e-05	5	true
0.023279      	smoothSolver	1.538720e-04	5.360770e-06	2	1.634820e-03	8.055480e-06	4	false	GAMG	1.231140e-02	9.055630e-05	5	true
0.0234283     	smoothSolver	1.533840e-04	5.306800e-06	2	1.628630e-03	7.941560e-06	4	false	GAMG	1.226450e-02	8.984850e-05	5	true
0.0235777     	smoothSolver	1.529010e-04	5.253620e-06	2	1.622480e-03	7.829700e-06	4	false	GAMG	1.215940e-02	8.919700e-05	5	true
0.023727      	smoothSolver	1.524200e-04	5.201200e-06	2	1.616390e-03	7.719580e-06	4	false	GAMG	1.195830e-02	8.848320e-05	5	true
0.0238764     	smoothSolver	1.519450e-04	5.149620e-06	2	1.610350e-03	7.611340e-06	4	false	GAMG	1.182750e-02	8.782710e-05	5	true
0.0240257     	smoothSolver	1.514730e-04	5.098800e-06	2	1.604360e-03	7.504880e-06	4	false	GAMG	1.178390e-02	8.721410e-05	5	true
0.0241751     	smoothSolver	1.510060e-04	5.048740e-06	2	1.598390e-03	7.400250e-06	4	false	GAMG	1.167250e-02	8.648100e-05	5	true
0.0243244     	smoothSolver	1.505430e-04	4.999370e-06	2	1.592560e-03	7.297270e-06	4	false	GAMG	1.149120e-02	8.590330e-05	5	true
0.0244738     	smoothSolver	1.500830e-04	4.950690e-06	2	1.586730e-03	7.196060e-06	4	false	GAMG	1.137700e-02	8.526080e-05	5	true
0.0246232     	smoothSolver	1.496270e-04	4.902660e-06	2	1.580880e-03	7.096460e-06	4	false	GAMG	1.130130e-02	8.466370e-05	5	true
0.0247725     	smoothSolver	1.491760e-04	4.855270e-06	2	1.575050e-03	6.998530e-06	4	false	GAMG	1.119770e-02	8.403300e-05	5	true
0.0249219     	smoothSolver	1.487290e-04	4.808480e-06	2	1.569250e-03	6.902170e-06	4	false	GAMG	1.105620e-02	8.345690e-05	5	true
0.0250712     	smoothSolver	1.482880e-04	4.762330e-06	2	1.563480e-03	6.807430e-06	4	false	GAMG	1.095440e-02	8.286210e-05	5	true
0.0252206     	smoothSolver	1.478500e-04	4.716800e-06	2	1.557730e-03	6.714240e-06	4	false	GAMG	1.084450e-02	8.228050e-05	5	true
0.0253699     	smoothSolver	1.474160e-04	4.671860e-06	2	1.551990e-03	6.622580e-06	4	false	GAMG	1.074500e-02	8.170340e-05	5	true
0.0255193     	smoothSolver	1.469850e-04	4.627500e-06	2	1.546290e-03	6.532400e-06	4	false	GAMG	1.064120e-02	8.115170e-05	5	true
0.0256687     	smoothSolver	1.465600e-04	4.583700e-06	2	1.540610e-03	6.443710e-06	4	false	GAMG	1.054990e-02	8.059220e-05	5	true
0.025818      	smoothSolver	1.461380e-04	4.540490e-06	2	1.535000e-03	6.356460e-06	4	false	GAMG	1.045550e-02	8.004490e-05	5	true
0.0259674     	smoothSolver	1.457190e-04	4.497890e-06	2	1.529470e-03	6.270640e-06	4	false	GAMG	1.035550e-02	7.950370e-05	5	true
0.0261167     	smoothSolver	1.453030e-04	4.455830e-06	2	1.524040e-03	6.186220e-06	4	false	GAMG	1.027470e-02	7.896860e-05	5	true
0.0262661     	smoothSolver	1.448910e-04	4.414300e-06	2	1.518720e-03	6.103190e-06	4	false	GAMG	1.019900e-02	7.846450e-05	5	true
0.0264154     	smoothSolver	1.444810e-04	4.373320e-06	2	1.513450e-03	6.021520e-06	4	false	GAMG	1.009460e-02	7.790080e-05	5	true
0.0265648     	smoothSolver	1.440740e-04	4.332830e-06	2	1.508230e-03	5.941160e-06	4	false	GAMG	9.969110e-03	7.741280e-05	5	true
0.0267142     	smoothSolver	1.436690e-04	4.292880e-06	2	1.503020e-03	5.862130e-06	4	false	GAMG	9.882310e-03	7.690790e-05	5	true
0.0268635     	smoothSolver	1.432690e-04	4.253450e-06	2	1.497830e-03	5.784410e-06	4	false	GAMG	9.787540e-03	7.640990e-05	5	true
0.0270129     	smoothSolver	1.428740e-04	4.214520e-06	2	1.492640e-03	5.707950e-06	4	false	GAMG	9.707050e-03	7.592130e-05	5	true
0.0271622     	smoothSolver	1.424820e-04	4.176070e-06	2	1.487470e-03	5.632750e-06	4	false	GAMG	9.617240e-03	7.542460e-05	5	true
0.0273116     	smoothSolver	1.420910e-04	4.138130e-06	2	1.482310e-03	5.558780e-06	4	false	GAMG	9.542250e-03	7.494590e-05	5	true
0.0274609     	smoothSolver	1.417040e-04	4.100670e-06	2	1.477170e-03	5.486000e-06	4	false	GAMG	9.456190e-03	7.447400e-05	5	true
0.0276103     	smoothSolver	1.413200e-04	4.063730e-06	2	1.472040e-03	5.414410e-06	4	false	GAMG	9.408970e-03	7.401230e-05	5	true
0.0277597     	smoothSolver	1.409390e-04	4.027240e-06	2	1.466930e-03	5.343970e-06	4	false	GAMG	9.315160e-03	7.351450e-05	5	true
0.027909      	smoothSolver	1.405600e-04	3.991280e-06	2	1.461860e-03	5.274660e-06	4	false	GAMG	9.209500e-03	7.307620e-05	5	true
0.0280584     	smoothSolver	1.401850e-04	3.955800e-06	2	1.456830e-03	5.206450e-06	4	false	GAMG	9.163160e-03	7.262870e-05	5	true
0.0282077     	smoothSolver	1.398130e-04	3.920770e-06	2	1.451830e-03	5.139350e-06	4	false	GAMG	9.090290e-03	7.216610e-05	5	true
0.0283571     	smoothSolver	1.394430e-04	3.886220e-06	2	1.446860e-03	5.073310e-06	4	false	GAMG	8.980150e-03	7.173610e-05	5	true
0.0285064     	smoothSolver	1.390760e-04	3.852100e-06	2	1.441940e-03	5.008340e-06	4	false	GAMG	8.908850e-03	7.128470e-05	5	true
0.0286558     	smoothSolver	1.387130e-04	3.818400e-06	2	1.437060e-03	4.944390e-06	4	false	GAMG	8.828460e-03	7.086300e-05	5	true
0.0288051     	smoothSolver	1.383530e-04	3.785120e-06	2	1.432260e-03	4.881470e-06	4	false	GAMG	8.756730e-03	7.042700e-05	5	true
0.0289545     	smoothSolver	1.379950e-04	3.752230e-06	2	1.427460e-03	4.819550e-06	4	false	GAMG	8.679200e-03	7.000870e-05	5	true
0.0291039     	smoothSolver	1.376390e-04	3.719750e-06	2	1.422660e-03	4.758600e-06	4	false	GAMG	8.619520e-03	6.959250e-05	5	true
0.0292532     	smoothSolver	1.372860e-04	3.687670e-06	2	1.417890e-03	4.698660e-06	4	false	GAMG	8.547930e-03	6.917100e-05	5	true
0.0294026     	smoothSolver	1.369360e-04	3.655970e-06	2	1.413130e-03	4.639650e-06	4	false	GAMG	8.470240e-03	6.876020e-05	5	true
0.0295519     	smoothSolver	1.365900e-04	3.624630e-06	2	1.408370e-03	4.581590e-06	4	false	GAMG	8.402930e-03	6.836090e-05	5	true
0.0297013     	smoothSolver	1.362470e-04	3.593670e-06	2	1.403620e-03	4.524410e-06	4	false	GAMG	8.342200e-03	6.795830e-05	5	true
0.0298506     	smoothSolver	1.359070e-04	3.563070e-06	2	1.398890e-03	4.468170e-06	4	false	GAMG	8.277100e-03	6.755690e-05	5	true
0.03          	smoothSolver	1.355690e-04	3.532850e-06	2	1.394190e-03	9.906060e-06	3	false	GAMG	7.562410e-03	4.106940e-05	6	true
0.0301538     	smoothSolver	1.392010e-04	3.762220e-06	2	1.431110e-03	4.867810e-06	4	false	GAMG	8.761590e-03	7.073590e-05	5	true
0.0303077     	smoothSolver	1.388520e-04	3.737050e-06	2	1.425350e-03	4.763070e-06	4	false	GAMG	8.399630e-03	6.807990e-05	5	true
0.0304615     	smoothSolver	1.385070e-04	3.703620e-06	2	1.420670e-03	4.710380e-06	4	false	GAMG	8.327660e-03	6.800530e-05	5	true
0.0306154     	smoothSolver	1.381600e-04	3.672470e-06	2	1.415830e-03	4.648080e-06	4	false	GAMG	8.282170e-03	6.754180e-05	5	true
0.0307692     	smoothSolver	1.378150e-04	3.641010e-06	2	1.411140e-03	4.591660e-06	4	false	GAMG	8.201830e-03	6.716480e-05	5	true
0.0309231     	smoothSolver	1.374730e-04	3.610270e-06	2	1.406490e-03	4.533040e-06	4	false	GAMG	8.147620e-03	6.678430e-05	5	true
0.0310769     	smoothSolver	1.371320e-04	3.579690e-06	2	1.401910e-03	9.998720e-06	3	false	GAMG	7.453940e-03	4.043560e-05	6	true
0.0312308     	smoothSolver	1.367090e-04	3.551250e-06	2	1.397320e-03	9.966670e-06	3	false	GAMG	7.543360e-03	3.682540e-05	6	true
0.0313846     	smoothSolver	1.363920e-04	3.520780e-06	2	1.392890e-03	9.843400e-06	3	false	GAMG	7.467600e-03	3.706620e-05	6	true
0.0315385     	smoothSolver	1.360560e-04	3.491340e-06	2	1.388370e-03	9.735760e-06	3	false	GAMG	7.436770e-03	3.670830e-05	6	true