# Field minima and maxima
# Time        	field         	min           	location(min) 	max           	location(max) 
1             	mag(U)        	0.000000e+00	(7.000970e-03 7.139805e-03 5.000000e-03)	2.048118e-01	(1.095845e-04 -1.116184e-02 5.000000e-03)
1             	nu            	1.500000e-04	(7.815126e-03 7.970105e-03 5.000000e-03)	1.500000e-04	(7.815126e-03 7.970105e-03 5.000000e-03)
1             	p             	-9.475324e+00	(1.116184e-02 -1.095845e-04 5.000000e-03)	9.720770e+00	(-1.116184e-02 1.095845e-04 5.000000e-03)
1             	yPlus         	0.000000e+00	(7.815126e-03 7.970105e-03 5.000000e-03)	0.000000e+00	(7.815126e-03 7.970105e-03 5.000000e-03)
# ===         
# Time        	field         	min           	location(min) 	max           	location(max) 
2             	mag(U)        	0.000000e+00	(7.000970e-03 7.139805e-03 5.000000e-03)	2.107640e-01	(-1.095845e-04 1.116184e-02 5.000000e-03)
2             	mag(force)    	0.000000e+00	(7.815126e-03 7.970105e-03 5.000000e-03)	1.912144e-05	(-9.999035e-03 9.816850e-05 5.000000e-03)
2             	mag(forceCoeff)	0.000000e+00	(7.815126e-03 7.970105e-03 5.000000e-03)	8.498419e+00	(-9.999035e-03 9.816850e-05 5.000000e-03)
2             	mag(moment)   	0.000000e+00	(7.815126e-03 7.970105e-03 5.000000e-03)	9.560721e-08	(-9.999035e-03 9.816850e-05 5.000000e-03)
2             	mag(momentCoeff)	0.000000e+00	(7.815126e-03 7.970105e-03 5.000000e-03)	2.124600e+02	(-9.999035e-03 9.816850e-05 5.000000e-03)
2             	nu            	1.500000e-04	(7.815126e-03 7.970105e-03 5.000000e-03)	1.500000e-04	(7.815126e-03 7.970105e-03 5.000000e-03)
2             	p             	-1.181546e+00	(1.116184e-02 1.095845e-04 5.000000e-03)	1.268697e+00	(-1.116184e-02 -1.095845e-04 5.000000e-03)
2             	yPlus         	0.000000e+00	(7.815126e-03 7.970105e-03 5.000000e-03)	0.000000e+00	(7.815126e-03 7.970105e-03 5.000000e-03)
3             	mag(U)        	0.000000e+00	(7.000970e-03 7.139805e-03 5.000000e-03)	2.116927e-01	(-1.095845e-04 1.116184e-02 5.000000e-03)
3             	mag(force)    	0.000000e+00	(7.815126e-03 7.970105e-03 5.000000e-03)	2.519290e-06	(-9.999035e-03 9.816850e-05 5.000000e-03)
3             	mag(forceCoeff)	0.000000e+00	(7.815126e-03 7.970105e-03 5.000000e-03)	1.119684e+00	(-9.999035e-03 9.816850e-05 5.000000e-03)
3             	mag(moment)   	0.000000e+00	(7.815126e-03 7.970105e-03 5.000000e-03)	1.259645e-08	(-9.999035e-03 9.816850e-05 5.000000e-03)
3             	mag(momentCoeff)	0.000000e+00	(7.815126e-03 7.970105e-03 5.000000e-03)	2.799205e+01	(-9.999035e-03 9.816850e-05 5.000000e-03)
3             	nu            	1.500000e-04	(7.815126e-03 7.970105e-03 5.000000e-03)	1.500000e-04	(7.815126e-03 7.970105e-03 5.000000e-03)
3             	p             	-3.284530e-01	(-1.340008e-02 3.947783e-04 5.000000e-03)	3.194009e-01	(1.340008e-02 -3.947783e-04 5.000000e-03)
3             	yPlus         	0.000000e+00	(7.815126e-03 7.970105e-03 5.000000e-03)	0.000000e+00	(7.815126e-03 7.970105e-03 5.000000e-03)
4             	mag(U)        	0.000000e+00	(7.000970e-03 7.139805e-03 5.000000e-03)	2.115876e-01	(-1.095845e-04 1.116184e-02 5.000000e-03)
4             	mag(force)    	0.000000e+00	(7.815126e-03 7.970105e-03 5.000000e-03)	5.861862e-07	(9.975915e-03 6.866495e-04 5.000000e-03)
4             	mag(forceCoeff)	0.000000e+00	(7.815126e-03 7.970105e-03 5.000000e-03)	2.605272e-01	(9.975915e-03 6.866495e-04 5.000000e-03)
4             	mag(moment)   	0.000000e+00	(7.815126e-03 7.970105e-03 5.000000e-03)	2.931088e-09	(9.975915e-03 6.866495e-04 5.000000e-03)
4             	mag(momentCoeff)	0.000000e+00	(7.815126e-03 7.970105e-03 5.000000e-03)	6.513515e+00	(9.975915e-03 6.866495e-04 5.000000e-03)
4             	nu            	1.500000e-04	(7.815126e-03 7.970105e-03 5.000000e-03)	1.500000e-04	(7.815126e-03 7.970105e-03 5.000000e-03)
4             	p             	-2.237114e-01	(-1.340524e-02 1.316105e-04 5.000000e-03)	2.276226e-01	(1.340008e-02 3.947783e-04 5.000000e-03)
4             	yPlus         	0.000000e+00	(7.815126e-03 7.970105e-03 5.000000e-03)	0.000000e+00	(7.815126e-03 7.970105e-03 5.000000e-03)
5             	mag(U)        	0.000000e+00	(7.000970e-03 7.139805e-03 5.000000e-03)	2.112689e-01	(-1.095845e-04 -1.116184e-02 5.000000e-03)
5             	mag(force)    	0.000000e+00	(7.815126e-03 7.970105e-03 5.000000e-03)	2.555225e-07	(-9.999035e-03 9.816850e-05 5.000000e-03)
5             	mag(forceCoeff)	0.000000e+00	(7.815126e-03 7.970105e-03 5.000000e-03)	1.135656e-01	(-9.999035e-03 9.816850e-05 5.000000e-03)
5             	mag(moment)   	0.000000e+00	(7.815126e-03 7.970105e-03 5.000000e-03)	1.277618e-09	(-9.999035e-03 9.816850e-05 5.000000e-03)
5             	mag(momentCoeff)	0.000000e+00	(7.815126e-03 7.970105e-03 5.000000e-03)	2.839146e+00	(-9.999035e-03 9.816850e-05 5.000000e-03)
5             	nu            	1.500000e-04	(7.815126e-03 7.970105e-03 5.000000e-03)	1.500000e-04	(7.815126e-03 7.970105e-03 5.000000e-03)
5             	p             	-1.437314e-01	(-9.933127e-03 -9.002848e-03 5.000000e-03)	1.455360e-01	(9.933127e-03 9.002848e-03 5.000000e-03)
5             	yPlus         	0.000000e+00	(7.815126e-03 7.970105e-03 5.000000e-03)	0.000000e+00	(7.815126e-03 7.970105e-03 5.000000e-03)
6             	mag(U)        	0.000000e+00	(7.000970e-03 7.139805e-03 5.000000e-03)	2.109077e-01	(-1.095845e-04 -1.116184e-02 5.000000e-03)
6             	mag(force)    	0.000000e+00	(7.815126e-03 7.970105e-03 5.000000e-03)	1.708175e-07	(-9.987475e-03 4.906530e-04 5.000000e-03)
6             	mag(forceCoeff)	0.000000e+00	(7.815126e-03 7.970105e-03 5.000000e-03)	7.591889e-02	(-9.987475e-03 4.906530e-04 5.000000e-03)
6             	mag(moment)   	0.000000e+00	(7.815126e-03 7.970105e-03 5.000000e-03)	8.543278e-10	(-9.987475e-03 4.906530e-04 5.000000e-03)
6             	mag(momentCoeff)	0.000000e+00	(7.815126e-03 7.970105e-03 5.000000e-03)	1.898502e+00	(-9.987475e-03 4.906530e-04 5.000000e-03)
6             	nu            	1.500000e-04	(7.815126e-03 7.970105e-03 5.000000e-03)	1.500000e-04	(7.815126e-03 7.970105e-03 5.000000e-03)
6             	p             	-9.940634e-02	(-9.933127e-03 -9.002848e-03 5.000000e-03)	9.985229e-02	(1.340008e-02 -3.947783e-04 5.000000e-03)
6             	yPlus         	0.000000e+00	(7.815126e-03 7.970105e-03 5.000000e-03)	0.000000e+00	(7.815126e-03 7.970105e-03 5.000000e-03)
7             	mag(U)        	0.000000e+00	(7.000970e-03 7.139805e-03 5.000000e-03)	2.105258e-01	(-1.095845e-04 -1.116184e-02 5.000000e-03)
7             	mag(force)    	0.000000e+00	(7.815126e-03 7.970105e-03 5.000000e-03)	1.453410e-07	(-9.987475e-03 4.906530e-04 5.000000e-03)
7             	mag(forceCoeff)	0.000000e+00	(7.815126e-03 7.970105e-03 5.000000e-03)	6.459601e-02	(-9.987475e-03 4.906530e-04 5.000000e-03)
7             	mag(moment)   	0.000000e+00	(7.815126e-03 7.970105e-03 5.000000e-03)	7.271581e-10	(-9.975915e-03 6.866495e-04 5.000000e-03)
7             	mag(momentCoeff)	0.000000e+00	(7.815126e-03 7.970105e-03 5.000000e-03)	1.615903e+00	(-9.975915e-03 6.866495e-04 5.000000e-03)
7             	nu            	1.500000e-04	(7.815126e-03 7.970105e-03 5.000000e-03)	1.500000e-04	(7.815126e-03 7.970105e-03 5.000000e-03)
7             	p             	-7.625518e-02	(1.200052e-02 1.004735e-02 5.000000e-03)	7.696437e-02	(-1.564446e-02 4.609006e-04 5.000000e-03)
7             	yPlus         	0.000000e+00	(7.815126e-03 7.970105e-03 5.000000e-03)	0.000000e+00	(7.815126e-03 7.970105e-03 5.000000e-03)
8             	mag(U)        	0.000000e+00	(7.000970e-03 7.139805e-03 5.000000e-03)	2.101218e-01	(-1.095845e-04 -1.116184e-02 5.000000e-03)
8             	mag(force)    	0.000000e+00	(7.815126e-03 7.970105e-03 5.000000e-03)	1.313185e-07	(-9.987475e-03 4.906530e-04 5.000000e-03)
8             	mag(forceCoeff)	0.000000e+00	(7.815126e-03 7.970105e-03 5.000000e-03)	5.836379e-02	(-9.987475e-03 4.906530e-04 5.000000e-03)
8             	mag(moment)   	0.000000e+00	(7.815126e-03 7.970105e-03 5.000000e-03)	7.073581e-10	(7.275885e-03 6.859440e-03 5.000000e-03)
8             	mag(momentCoeff)	0.000000e+00	(7.815126e-03 7.970105e-03 5.000000e-03)	1.571903e+00	(7.275885e-03 6.859440e-03 5.000000e-03)
8             	nu            	1.500000e-04	(7.815126e-03 7.970105e-03 5.000000e-03)	1.500000e-04	(7.815126e-03 7.970105e-03 5.000000e-03)
8             	p             	-6.096362e-02	(1.561430e-02 1.074746e-03 5.000000e-03)	7.399211e-02	(-1.565050e-02 1.536537e-04 5.000000e-03)
8             	yPlus         	0.000000e+00	(7.815126e-03 7.970105e-03 5.000000e-03)	0.000000e+00	(7.815126e-03 7.970105e-03 5.000000e-03)
9             	mag(U)        	0.000000e+00	(7.000970e-03 7.139805e-03 5.000000e-03)	2.096861e-01	(-1.095845e-04 -1.116184e-02 5.000000e-03)
9             	mag(force)    	0.000000e+00	(7.815126e-03 7.970105e-03 5.000000e-03)	1.289702e-07	(-9.999035e-03 9.816850e-05 5.000000e-03)
9             	mag(forceCoeff)	0.000000e+00	(7.815126e-03 7.970105e-03 5.000000e-03)	5.732009e-02	(-9.999035e-03 9.816850e-05 5.000000e-03)
9             	mag(moment)   	0.000000e+00	(7.815126e-03 7.970105e-03 5.000000e-03)	6.558462e-10	(6.568500e-03 7.539570e-03 5.000000e-03)
9             	mag(momentCoeff)	0.000000e+00	(7.815126e-03 7.970105e-03 5.000000e-03)	1.457433e+00	(6.568500e-03 7.539570e-03 5.000000e-03)
9             	nu            	1.500000e-04	(7.815126e-03 7.970105e-03 5.000000e-03)	1.500000e-04	(7.815126e-03 7.970105e-03 5.000000e-03)
9             	p             	-5.217615e-02	(1.561430e-02 1.074746e-03 5.000000e-03)	6.588697e-02	(-1.565050e-02 -1.536537e-04 5.000000e-03)
9             	yPlus         	0.000000e+00	(7.815126e-03 7.970105e-03 5.000000e-03)	0.000000e+00	(7.815126e-03 7.970105e-03 5.000000e-03)
10            	mag(U)        	0.000000e+00	(7.000970e-03 7.139805e-03 5.000000e-03)	2.092251e-01	(-1.095845e-04 1.116184e-02 5.000000e-03)
10            	mag(force)    	0.000000e+00	(7.815126e-03 7.970105e-03 5.000000e-03)	1.168503e-07	(-9.999035e-03 -9.816850e-05 5.000000e-03)
10            	mag(forceCoeff)	0.000000e+00	(7.815126e-03 7.970105e-03 5.000000e-03)	5.193346e-02	(-9.999035e-03 -9.816850e-05 5.000000e-03)
10            	mag(moment)   	0.000000e+00	(7.815126e-03 7.970105e-03 5.000000e-03)	6.164483e-10	(4.451995e-03 8.953775e-03 5.000000e-03)
10            	mag(momentCoeff)	0.000000e+00	(7.815126e-03 7.970105e-03 5.000000e-03)	1.369882e+00	(4.451995e-03 8.953775e-03 5.000000e-03)
10            	nu            	1.500000e-04	(7.815126e-03 7.970105e-03 5.000000e-03)	1.500000e-04	(7.815126e-03 7.970105e-03 5.000000e-03)
10            	p             	-4.533131e-02	(1.561430e-02 -1.074746e-03 5.000000e-03)	5.963549e-02	(-1.565050e-02 -1.536537e-04 5.000000e-03)
10            	yPlus         	0.000000e+00	(7.815126e-03 7.970105e-03 5.000000e-03)	0.000000e+00	(7.815126e-03 7.970105e-03 5.000000e-03)
11            	mag(U)        	0.000000e+00	(7.000970e-03 7.139805e-03 5.000000e-03)	2.087377e-01	(-1.095845e-04 1.116184e-02 5.000000e-03)
11            	mag(force)    	0.000000e+00	(7.815126e-03 7.970105e-03 5.000000e-03)	1.078009e-07	(-9.999035e-03 9.816850e-05 5.000000e-03)
11            	mag(forceCoeff)	0.000000e+00	(7.815126e-03 7.970105e-03 5.000000e-03)	4.791150e-02	(-9.999035e-03 9.816850e-05 5.000000e-03)
11            	mag(moment)   	0.000000e+00	(7.815126e-03 7.970105e-03 5.000000e-03)	5.955376e-10	(2.996510e-03 9.539985e-03 5.000000e-03)
11            	mag(momentCoeff)	0.000000e+00	(7.815126e-03 7.970105e-03 5.000000e-03)	1.323414e+00	(2.996510e-03 9.539985e-03 5.000000e-03)
11            	nu            	1.500000e-04	(7.815126e-03 7.970105e-03 5.000000e-03)	1.500000e-04	(7.815126e-03 7.970105e-03 5.000000e-03)
11            	p             	-3.976178e-02	(1.561430e-02 -1.074746e-03 5.000000e-03)	5.286008e-02	(-1.565050e-02 -1.536537e-04 5.000000e-03)
11            	yPlus         	0.000000e+00	(7.815126e-03 7.970105e-03 5.000000e-03)	0.000000e+00	(7.815126e-03 7.970105e-03 5.000000e-03)
12            	mag(U)        	0.000000e+00	(7.000970e-03 7.139805e-03 5.000000e-03)	2.082304e-01	(-1.095845e-04 1.116184e-02 5.000000e-03)
12            	mag(force)    	0.000000e+00	(7.815126e-03 7.970105e-03 5.000000e-03)	9.754542e-08	(-9.999035e-03 9.816850e-05 5.000000e-03)
12            	mag(forceCoeff)	0.000000e+00	(7.815126e-03 7.970105e-03 5.000000e-03)	4.335352e-02	(-9.999035e-03 9.816850e-05 5.000000e-03)
12            	mag(moment)   	0.000000e+00	(7.815126e-03 7.970105e-03 5.000000e-03)	5.873761e-10	(2.429685e-03 9.699845e-03 5.000000e-03)
12            	mag(momentCoeff)	0.000000e+00	(7.815126e-03 7.970105e-03 5.000000e-03)	1.305277e+00	(2.429685e-03 9.699845e-03 5.000000e-03)
12            	nu            	1.500000e-04	(7.815126e-03 7.970105e-03 5.000000e-03)	1.500000e-04	(7.815126e-03 7.970105e-03 5.000000e-03)
12            	p             	-3.549789e-02	(1.556006e-02 -1.686930e-03 5.000000e-03)	4.721768e-02	(-1.565050e-02 1.536537e-04 5.000000e-03)
12            	yPlus         	0.000000e+00	(7.815126e-03 7.970105e-03 5.000000e-03)	0.000000e+00	(7.815126e-03 7.970105e-03 5.000000e-03)
13            	mag(U)        	0.000000e+00	(7.000970e-03 7.139805e-03 5.000000e-03)	2.077102e-01	(-1.095845e-04 1.116184e-02 5.000000e-03)
13            	mag(force)    	0.000000e+00	(7.815126e-03 7.970105e-03 5.000000e-03)	8.889698e-08	(-9.999035e-03 9.816850e-05 5.000000e-03)
13            	mag(forceCoeff)	0.000000e+00	(7.815126e-03 7.970105e-03 5.000000e-03)	3.950977e-02	(-9.999035e-03 9.816850e-05 5.000000e-03)
13            	mag(moment)   	0.000000e+00	(7.815126e-03 7.970105e-03 5.000000e-03)	5.844858e-10	(2.046995e-03 -9.787755e-03 5.000000e-03)
13            	mag(momentCoeff)	0.000000e+00	(7.815126e-03 7.970105e-03 5.000000e-03)	1.298855e+00	(2.046995e-03 -9.787755e-03 5.000000e-03)
13            	nu            	1.500000e-04	(7.815126e-03 7.970105e-03 5.000000e-03)	1.500000e-04	(7.815126e-03 7.970105e-03 5.000000e-03)
13            	p             	-3.314713e-02	(1.556006e-02 -1.686930e-03 5.000000e-03)	4.130706e-02	(-1.565050e-02 -1.536537e-04 5.000000e-03)
13            	yPlus         	0.000000e+00	(7.815126e-03 7.970105e-03 5.000000e-03)	0.000000e+00	(7.815126e-03 7.970105e-03 5.000000e-03)
14            	mag(U)        	0.000000e+00	(7.000970e-03 7.139805e-03 5.000000e-03)	2.071841e-01	(-1.095845e-04 1.116184e-02 5.000000e-03)
14            	mag(force)    	0.000000e+00	(7.815126e-03 7.970105e-03 5.000000e-03)	7.967221e-08	(-9.999035e-03 9.816850e-05 5.000000e-03)
14            	mag(forceCoeff)	0.000000e+00	(7.815126e-03 7.970105e-03 5.000000e-03)	3.540987e-02	(-9.999035e-03 9.816850e-05 5.000000e-03)
14            	mag(moment)   	0.000000e+00	(7.815126e-03 7.970105e-03 5.000000e-03)	5.878428e-10	(1.854430e-03 -9.826060e-03 5.000000e-03)
14            	mag(momentCoeff)	0.000000e+00	(7.815126e-03 7.970105e-03 5.000000e-03)	1.306314e+00	(1.854430e-03 -9.826060e-03 5.000000e-03)
14            	nu            	1.500000e-04	(7.815126e-03 7.970105e-03 5.000000e-03)	1.500000e-04	(7.815126e-03 7.970105e-03 5.000000e-03)
14            	p             	-3.069722e-02	(1.556006e-02 -1.686930e-03 5.000000e-03)	3.800883e-02	(-1.565050e-02 -1.536537e-04 5.000000e-03)
14            	yPlus         	0.000000e+00	(7.815126e-03 7.970105e-03 5.000000e-03)	0.000000e+00	(7.815126e-03 7.970105e-03 5.000000e-03)
15            	mag(U)        	0.000000e+00	(7.000970e-03 7.139805e-03 5.000000e-03)	2.066536e-01	(-1.095845e-04 1.116184e-02 5.000000e-03)
15            	mag(force)    	0.000000e+00	(7.815126e-03 7.970105e-03 5.000000e-03)	7.534407e-08	(-9.999035e-03 9.816850e-05 5.000000e-03)
15            	mag(forceCoeff)	0.000000e+00	(7.815126e-03 7.970105e-03 5.000000e-03)	3.348626e-02	(-9.999035e-03 9.816850e-05 5.000000e-03)
15            	mag(moment)   	0.000000e+00	(7.815126e-03 7.970105e-03 5.000000e-03)	5.870386e-10	(1.854430e-03 -9.826060e-03 5.000000e-03)
15            	mag(momentCoeff)	0.000000e+00	(7.815126e-03 7.970105e-03 5.000000e-03)	1.304527e+00	(1.854430e-03 -9.826060e-03 5.000000e-03)
15            	nu            	1.500000e-04	(7.815126e-03 7.970105e-03 5.000000e-03)	1.500000e-04	(7.815126e-03 7.970105e-03 5.000000e-03)
15            	p             	-2.870970e-02	(1.556006e-02 -1.686930e-03 5.000000e-03)	3.497700e-02	(-1.565050e-02 -1.536537e-04 5.000000e-03)
15            	yPlus         	0.000000e+00	(7.815126e-03 7.970105e-03 5.000000e-03)	0.000000e+00	(7.815126e-03 7.970105e-03 5.000000e-03)
16            	mag(U)        	0.000000e+00	(7.000970e-03 7.139805e-03 5.000000e-03)	2.061205e-01	(-1.095845e-04 1.116184e-02 5.000000e-03)
16            	mag(force)    	0.000000e+00	(7.815126e-03 7.970105e-03 5.000000e-03)	7.302488e-08	(4.451995e-03 -8.953775e-03 5.000000e-03)
16            	mag(forceCoeff)	0.000000e+00	(7.815126e-03 7.970105e-03 5.000000e-03)	3.245550e-02	(4.451995e-03 -8.953775e-03 5.000000e-03)
16            	mag(moment)   	0.000000e+00	(7.815126e-03 7.970105e-03 5.000000e-03)	5.864757e-10	(1.854430e-03 9.826060e-03 5.000000e-03)
16            	mag(momentCoeff)	0.000000e+00	(7.815126e-03 7.970105e-03 5.000000e-03)	1.303276e+00	(1.854430e-03 9.826060e-03 5.000000e-03)
16            	nu            	1.500000e-04	(7.815126e-03 7.970105e-03 5.000000e-03)	1.500000e-04	(7.815126e-03 7.970105e-03 5.000000e-03)
16            	p             	-2.684735e-02	(1.537974e-02 -2.902558e-03 5.000000e-03)	3.296842e-02	(-1.565050e-02 -1.536537e-04 5.000000e-03)
16            	yPlus         	0.000000e+00	(7.815126e-03 7.970105e-03 5.000000e-03)	0.000000e+00	(7.815126e-03 7.970105e-03 5.000000e-03)
17            	mag(U)        	0.000000e+00	(7.000970e-03 7.139805e-03 5.000000e-03)	2.055850e-01	(-1.095845e-04 1.116184e-02 5.000000e-03)
17            	mag(force)    	0.000000e+00	(7.815126e-03 7.970105e-03 5.000000e-03)	7.242293e-08	(4.275345e-03 9.039455e-03 5.000000e-03)
17            	mag(forceCoeff)	0.000000e+00	(7.815126e-03 7.970105e-03 5.000000e-03)	3.218797e-02	(4.275345e-03 9.039455e-03 5.000000e-03)
17            	mag(moment)   	0.000000e+00	(7.815126e-03 7.970105e-03 5.000000e-03)	5.846087e-10	(1.661150e-03 9.860575e-03 5.000000e-03)
17            	mag(momentCoeff)	0.000000e+00	(7.815126e-03 7.970105e-03 5.000000e-03)	1.299127e+00	(1.661150e-03 9.860575e-03 5.000000e-03)
17            	nu            	1.500000e-04	(7.815126e-03 7.970105e-03 5.000000e-03)	1.500000e-04	(7.815126e-03 7.970105e-03 5.000000e-03)
17            	p             	-2.514769e-02	(4.573490e-03 1.018243e-02 5.000000e-03)	3.129265e-02	(-1.565050e-02 -1.536537e-04 5.000000e-03)
17            	yPlus         	0.000000e+00	(7.815126e-03 7.970105e-03 5.000000e-03)	0.000000e+00	(7.815126e-03 7.970105e-03 5.000000e-03)
18            	mag(U)        	0.000000e+00	(7.000970e-03 7.139805e-03 5.000000e-03)	2.050481e-01	(-1.095845e-04 1.116184e-02 5.000000e-03)
18            	mag(force)    	0.000000e+00	(7.815126e-03 7.970105e-03 5.000000e-03)	7.158972e-08	(4.097045e-03 9.121655e-03 5.000000e-03)
18            	mag(forceCoeff)	0.000000e+00	(7.815126e-03 7.970105e-03 5.000000e-03)	3.181765e-02	(4.097045e-03 9.121655e-03 5.000000e-03)
18            	mag(moment)   	0.000000e+00	(7.815126e-03 7.970105e-03 5.000000e-03)	5.822126e-10	(1.467230e-03 9.891285e-03 5.000000e-03)
18            	mag(momentCoeff)	0.000000e+00	(7.815126e-03 7.970105e-03 5.000000e-03)	1.293803e+00	(1.467230e-03 9.891285e-03 5.000000e-03)
18            	nu            	1.500000e-04	(7.815126e-03 7.970105e-03 5.000000e-03)	1.500000e-04	(7.815126e-03 7.970105e-03 5.000000e-03)
18            	p             	-2.460371e-02	(4.372689e-03 1.027025e-02 5.000000e-03)	3.003545e-02	(-1.565050e-02 -1.536537e-04 5.000000e-03)
18            	yPlus         	0.000000e+00	(7.815126e-03 7.970105e-03 5.000000e-03)	0.000000e+00	(7.815126e-03 7.970105e-03 5.000000e-03)
19            	mag(U)        	0.000000e+00	(7.000970e-03 7.139805e-03 5.000000e-03)	2.045130e-01	(-1.095845e-04 1.116184e-02 5.000000e-03)
19            	mag(force)    	0.000000e+00	(7.815126e-03 7.970105e-03 5.000000e-03)	7.059898e-08	(3.917160e-03 9.200340e-03 5.000000e-03)
19            	mag(forceCoeff)	0.000000e+00	(7.815126e-03 7.970105e-03 5.000000e-03)	3.137733e-02	(3.917160e-03 9.200340e-03 5.000000e-03)
19            	mag(moment)   	0.000000e+00	(7.815126e-03 7.970105e-03 5.000000e-03)	5.792622e-10	(1.467230e-03 9.891285e-03 5.000000e-03)
19            	mag(momentCoeff)	0.000000e+00	(7.815126e-03 7.970105e-03 5.000000e-03)	1.287246e+00	(1.467230e-03 9.891285e-03 5.000000e-03)
19            	nu            	1.500000e-04	(7.815126e-03 7.970105e-03 5.000000e-03)	1.500000e-04	(7.815126e-03 7.970105e-03 5.000000e-03)
19            	p             	-2.438891e-02	(4.372689e-03 1.027025e-02 5.000000e-03)	2.882603e-02	(-1.565050e-02 1.536537e-04 5.000000e-03)
19            	yPlus         	0.000000e+00	(7.815126e-03 7.970105e-03 5.000000e-03)	0.000000e+00	(7.815126e-03 7.970105e-03 5.000000e-03)
20            	mag(U)        	0.000000e+00	(7.000970e-03 7.139805e-03 5.000000e-03)	2.039762e-01	(-1.095845e-04 1.116184e-02 5.000000e-03)
20            	mag(force)    	0.000000e+00	(7.815126e-03 7.970105e-03 5.000000e-03)	7.012600e-08	(3.917160e-03 9.200340e-03 5.000000e-03)
20            	mag(forceCoeff)	0.000000e+00	(7.815126e-03 7.970105e-03 5.000000e-03)	3.116711e-02	(3.917160e-03 9.200340e-03 5.000000e-03)
20            	mag(moment)   	0.000000e+00	(7.815126e-03 7.970105e-03 5.000000e-03)	5.770417e-10	(1.467230e-03 9.891285e-03 5.000000e-03)
20            	mag(momentCoeff)	0.000000e+00	(7.815126e-03 7.970105e-03 5.000000e-03)	1.282312e+00	(1.467230e-03 9.891285e-03 5.000000e-03)
20            	nu            	1.500000e-04	(7.815126e-03 7.970105e-03 5.000000e-03)	1.500000e-04	(7.815126e-03 7.970105e-03 5.000000e-03)
20            	p             	-2.397332e-02	(4.170211e-03 1.035415e-02 5.000000e-03)	2.761361e-02	(-1.565050e-02 1.536537e-04 5.000000e-03)
20            	yPlus         	0.000000e+00	(7.815126e-03 7.970105e-03 5.000000e-03)	0.000000e+00	(7.815126e-03 7.970105e-03 5.000000e-03)
21            	mag(U)        	0.000000e+00	(7.000970e-03 7.139805e-03 5.000000e-03)	2.034369e-01	(-1.095845e-04 1.116184e-02 5.000000e-03)
21            	mag(force)    	0.000000e+00	(7.815126e-03 7.970105e-03 5.000000e-03)	6.934567e-08	(3.735765e-03 9.275475e-03 5.000000e-03)
21            	mag(forceCoeff)	0.000000e+00	(7.815126e-03 7.970105e-03 5.000000e-03)	3.082030e-02	(3.735765e-03 9.275475e-03 5.000000e-03)
21            	mag(moment)   	0.000000e+00	(7.815126e-03 7.970105e-03 5.000000e-03)	5.745996e-10	(1.467230e-03 9.891285e-03 5.000000e-03)
21            	mag(momentCoeff)	0.000000e+00	(7.815126e-03 7.970105e-03 5.000000e-03)	1.276885e+00	(1.467230e-03 9.891285e-03 5.000000e-03)
21            	nu            	1.500000e-04	(7.815126e-03 7.970105e-03 5.000000e-03)	1.500000e-04	(7.815126e-03 7.970105e-03 5.000000e-03)
21            	p             	-2.325300e-02	(3.966110e-03 1.043400e-02 5.000000e-03)	2.678605e-02	(-1.565050e-02 1.536537e-04 5.000000e-03)
21            	yPlus         	0.000000e+00	(7.815126e-03 7.970105e-03 5.000000e-03)	0.000000e+00	(7.815126e-03 7.970105e-03 5.000000e-03)
22            	mag(U)        	0.000000e+00	(7.000970e-03 7.139805e-03 5.000000e-03)	2.028964e-01	(-1.095845e-04 1.116184e-02 5.000000e-03)
22            	mag(force)    	0.000000e+00	(7.815126e-03 7.970105e-03 5.000000e-03)	6.811741e-08	(3.552935e-03 9.347030e-03 5.000000e-03)
22            	mag(forceCoeff)	0.000000e+00	(7.815126e-03 7.970105e-03 5.000000e-03)	3.027440e-02	(3.552935e-03 9.347030e-03 5.000000e-03)
22            	mag(moment)   	0.000000e+00	(7.815126e-03 7.970105e-03 5.000000e-03)	5.711286e-10	(1.272745e-03 9.918185e-03 5.000000e-03)
22            	mag(momentCoeff)	0.000000e+00	(7.815126e-03 7.970105e-03 5.000000e-03)	1.269172e+00	(1.272745e-03 9.918185e-03 5.000000e-03)
22            	nu            	1.500000e-04	(7.815126e-03 7.970105e-03 5.000000e-03)	1.500000e-04	(7.815126e-03 7.970105e-03 5.000000e-03)
22            	p             	-2.280602e-02	(3.760496e-03 -1.050988e-02 5.000000e-03)	2.595670e-02	(-1.565050e-02 1.536537e-04 5.000000e-03)
22            	yPlus         	0.000000e+00	(7.815126e-03 7.970105e-03 5.000000e-03)	0.000000e+00	(7.815126e-03 7.970105e-03 5.000000e-03)
23            	mag(U)        	0.000000e+00	(7.000970e-03 7.139805e-03 5.000000e-03)	2.023556e-01	(-1.095845e-04 1.116184e-02 5.000000e-03)
23            	mag(force)    	0.000000e+00	(7.815126e-03 7.970105e-03 5.000000e-03)	6.731786e-08	(3.368735e-03 -9.414985e-03 5.000000e-03)
23            	mag(forceCoeff)	0.000000e+00	(7.815126e-03 7.970105e-03 5.000000e-03)	2.991905e-02	(3.368735e-03 -9.414985e-03 5.000000e-03)
23            	mag(moment)   	0.000000e+00	(7.815126e-03 7.970105e-03 5.000000e-03)	5.685676e-10	(1.272745e-03 9.918185e-03 5.000000e-03)
23            	mag(momentCoeff)	0.000000e+00	(7.815126e-03 7.970105e-03 5.000000e-03)	1.263481e+00	(1.272745e-03 9.918185e-03 5.000000e-03)
23            	nu            	1.500000e-04	(7.815126e-03 7.970105e-03 5.000000e-03)	1.500000e-04	(7.815126e-03 7.970105e-03 5.000000e-03)
23            	p             	-2.224548e-02	(3.760496e-03 -1.050988e-02 5.000000e-03)	2.543044e-02	(-1.565050e-02 1.536537e-04 5.000000e-03)
23            	yPlus         	0.000000e+00	(7.815126e-03 7.970105e-03 5.000000e-03)	0.000000e+00	(7.815126e-03 7.970105e-03 5.000000e-03)
24            	mag(U)        	0.000000e+00	(7.000970e-03 7.139805e-03 5.000000e-03)	2.018156e-01	(-1.095845e-04 1.116184e-02 5.000000e-03)
24            	mag(force)    	0.000000e+00	(7.815126e-03 7.970105e-03 5.000000e-03)	6.636206e-08	(3.368735e-03 -9.414985e-03 5.000000e-03)
24            	mag(forceCoeff)	0.000000e+00	(7.815126e-03 7.970105e-03 5.000000e-03)	2.949425e-02	(3.368735e-03 -9.414985e-03 5.000000e-03)
24            	mag(moment)   	0.000000e+00	(7.815126e-03 7.970105e-03 5.000000e-03)	5.653445e-10	(1.272745e-03 -9.918185e-03 5.000000e-03)
24            	mag(momentCoeff)	0.000000e+00	(7.815126e-03 7.970105e-03 5.000000e-03)	1.256318e+00	(1.272745e-03 -9.918185e-03 5.000000e-03)
24            	nu            	1.500000e-04	(7.815126e-03 7.970105e-03 5.000000e-03)	1.500000e-04	(7.815126e-03 7.970105e-03 5.000000e-03)
24            	p             	-2.203565e-02	(3.553416e-03 -1.058166e-02 5.000000e-03)	2.469837e-02	(-1.565050e-02 1.536537e-04 5.000000e-03)
24            	yPlus         	0.000000e+00	(7.815126e-03 7.970105e-03 5.000000e-03)	0.000000e+00	(7.815126e-03 7.970105e-03 5.000000e-03)
25            	mag(U)        	0.000000e+00	(7.000970e-03 7.139805e-03 5.000000e-03)	2.012765e-01	(-1.095845e-04 1.116184e-02 5.000000e-03)
25            	mag(force)    	0.000000e+00	(7.815126e-03 7.970105e-03 5.000000e-03)	6.592575e-08	(3.183235e-03 -9.479315e-03 5.000000e-03)
25            	mag(forceCoeff)	0.000000e+00	(7.815126e-03 7.970105e-03 5.000000e-03)	2.930033e-02	(3.183235e-03 -9.479315e-03 5.000000e-03)
25            	mag(moment)   	0.000000e+00	(7.815126e-03 7.970105e-03 5.000000e-03)	5.634080e-10	(1.077770e-03 -9.941265e-03 5.000000e-03)
25            	mag(momentCoeff)	0.000000e+00	(7.815126e-03 7.970105e-03 5.000000e-03)	1.252015e+00	(1.077770e-03 -9.941265e-03 5.000000e-03)
25            	nu            	1.500000e-04	(7.815126e-03 7.970105e-03 5.000000e-03)	1.500000e-04	(7.815126e-03 7.970105e-03 5.000000e-03)
25            	p             	-2.178042e-02	(3.553416e-03 -1.058166e-02 5.000000e-03)	2.406388e-02	(-1.565050e-02 1.536537e-04 5.000000e-03)
25            	yPlus         	0.000000e+00	(7.815126e-03 7.970105e-03 5.000000e-03)	0.000000e+00	(7.815126e-03 7.970105e-03 5.000000e-03)
26            	mag(U)        	0.000000e+00	(7.000970e-03 7.139805e-03 5.000000e-03)	2.007385e-01	(-1.095845e-04 1.116184e-02 5.000000e-03)
26            	mag(force)    	0.000000e+00	(7.815126e-03 7.970105e-03 5.000000e-03)	6.543233e-08	(3.183235e-03 -9.479315e-03 5.000000e-03)
26            	mag(forceCoeff)	0.000000e+00	(7.815126e-03 7.970105e-03 5.000000e-03)	2.908103e-02	(3.183235e-03 -9.479315e-03 5.000000e-03)
26            	mag(moment)   	0.000000e+00	(7.815126e-03 7.970105e-03 5.000000e-03)	5.612851e-10	(1.077770e-03 -9.941265e-03 5.000000e-03)
26            	mag(momentCoeff)	0.000000e+00	(7.815126e-03 7.970105e-03 5.000000e-03)	1.247298e+00	(1.077770e-03 -9.941265e-03 5.000000e-03)
26            	nu            	1.500000e-04	(7.815126e-03 7.970105e-03 5.000000e-03)	1.500000e-04	(7.815126e-03 7.970105e-03 5.000000e-03)
26            	p             	-2.169459e-02	(3.553416e-03 -1.058166e-02 5.000000e-03)	2.333547e-02	(-1.565050e-02 1.536537e-04 5.000000e-03)
26            	yPlus         	0.000000e+00	(7.815126e-03 7.970105e-03 5.000000e-03)	0.000000e+00	(7.815126e-03 7.970105e-03 5.000000e-03)
27            	mag(U)        	0.000000e+00	(7.000970e-03 7.139805e-03 5.000000e-03)	2.002014e-01	(-1.095845e-04 1.116184e-02 5.000000e-03)
27            	mag(force)    	0.000000e+00	(7.815126e-03 7.970105e-03 5.000000e-03)	6.518765e-08	(3.183235e-03 -9.479315e-03 5.000000e-03)
27            	mag(forceCoeff)	0.000000e+00	(7.815126e-03 7.970105e-03 5.000000e-03)	2.897229e-02	(3.183235e-03 -9.479315e-03 5.000000e-03)
27            	mag(moment)   	0.000000e+00	(7.815126e-03 7.970105e-03 5.000000e-03)	5.597959e-10	(1.077770e-03 -9.941265e-03 5.000000e-03)
27            	mag(momentCoeff)	0.000000e+00	(7.815126e-03 7.970105e-03 5.000000e-03)	1.243988e+00	(1.077770e-03 -9.941265e-03 5.000000e-03)
27            	nu            	1.500000e-04	(7.815126e-03 7.970105e-03 5.000000e-03)	1.500000e-04	(7.815126e-03 7.970105e-03 5.000000e-03)
27            	p             	-2.159649e-02	(3.344983e-03 -1.064940e-02 5.000000e-03)	2.267743e-02	(-1.565050e-02 1.536537e-04 5.000000e-03)
27            	yPlus         	0.000000e+00	(7.815126e-03 7.970105e-03 5.000000e-03)	0.000000e+00	(7.815126e-03 7.970105e-03 5.000000e-03)
28            	mag(U)        	0.000000e+00	(7.000970e-03 7.139805e-03 5.000000e-03)	1.996651e-01	(-1.095845e-04 1.116184e-02 5.000000e-03)