# Solver information
# Time        	U_solver      	Ux_initial    	Ux_final      	Ux_iters      	Uy_initial    	Uy_final      	Uy_iters      	U_converged   	p_solver      	p_initial     	p_final       	p_iters       	p_converged   
1.19332e-06   	smoothSolver	1.000000e+00	9.319100e-06	24	1.000000e+00	8.157500e-06	25	false	GAMG	1.000000e+00	3.887380e-03	8	true
2.11193e-06   	smoothSolver	6.269490e-02	8.854870e-06	11	2.769140e-01	9.814060e-06	14	false	GAMG	3.475500e-01	2.584940e-03	7	true
2.91498e-06   	smoothSolver	2.666630e-02	7.222050e-06	9	9.724090e-02	6.020340e-06	12	false	GAMG	5.890790e-01	2.949680e-03	6	true
3.75892e-06   	smoothSolver	7.657230e-03	8.095480e-06	8	2.993880e-02	6.578810e-06	9	false	GAMG	7.250530e-01	6.987590e-03	4	true
4.62952e-06   	smoothSolver	1.518590e-03	7.751560e-06	7	7.588630e-03	6.606840e-06	10	false	GAMG	9.212050e-01	5.802670e-03	3	true
5.51569e-06   	smoothSolver	2.252270e-03	8.583850e-06	7	1.010590e-02	5.414440e-06	8	false	GAMG	8.210700e-01	8.106480e-03	2	true
6.41476e-06   	smoothSolver	1.384830e-03	9.918100e-06	6	7.490780e-03	7.514200e-06	9	false	GAMG	8.512930e-01	7.795680e-03	2	true
7.3305e-06    	smoothSolver	1.389440e-03	6.083180e-06	7	7.425790e-03	6.837930e-06	8	false	GAMG	7.682740e-01	5.735190e-03	3	true
8.26536e-06   	smoothSolver	1.135200e-03	8.370710e-06	6	6.573190e-03	6.108070e-06	9	false	GAMG	7.406860e-01	3.407900e-03	3	true
9.21833e-06   	smoothSolver	1.054300e-03	8.923770e-06	6	6.203230e-03	7.894750e-06	8	false	GAMG	6.680170e-01	5.665080e-03	2	true
1.01825e-05   	smoothSolver	9.402190e-04	7.394150e-06	6	5.813790e-03	9.502130e-06	8	false	GAMG	6.093060e-01	3.738280e-03	3	true
1.11583e-05   	smoothSolver	8.829980e-04	7.429030e-06	6	5.566470e-03	7.789890e-06	8	false	GAMG	5.338130e-01	3.293260e-03	3	true
1.21438e-05   	smoothSolver	8.119910e-04	6.501050e-06	6	5.328840e-03	8.426450e-06	8	false	GAMG	4.561760e-01	2.804190e-03	3	true
1.31415e-05   	smoothSolver	7.675830e-04	6.451330e-06	6	5.102150e-03	7.589980e-06	8	false	GAMG	3.939810e-01	2.546140e-03	3	true
1.41516e-05   	smoothSolver	7.218790e-04	5.923100e-06	6	4.958270e-03	7.923960e-06	8	false	GAMG	3.119050e-01	2.731770e-03	3	true
1.51744e-05   	smoothSolver	6.875180e-04	5.832780e-06	6	4.772170e-03	7.464000e-06	8	false	GAMG	2.672940e-01	2.476800e-03	3	true
1.62082e-05   	smoothSolver	6.524600e-04	9.444650e-06	5	4.661830e-03	7.576600e-06	8	false	GAMG	2.062340e-01	1.910820e-03	4	true
1.72553e-05   	smoothSolver	6.215560e-04	9.306290e-06	5	4.482000e-03	7.300230e-06	8	false	GAMG	1.773270e-01	1.438140e-03	4	true
1.83117e-05   	smoothSolver	5.955890e-04	8.767740e-06	5	4.390860e-03	7.294890e-06	8	false	GAMG	1.371430e-01	7.570120e-04	5	true
1.9375e-05    	smoothSolver	5.723000e-04	8.424930e-06	5	4.262230e-03	6.954170e-06	8	false	GAMG	1.183310e-01	7.384570e-04	5	true
2.04454e-05   	smoothSolver	5.492690e-04	7.986330e-06	5	4.163460e-03	6.860240e-06	8	false	GAMG	9.335150e-02	6.737380e-04	5	true
2.15255e-05   	smoothSolver	5.311250e-04	7.749960e-06	5	4.070430e-03	6.687150e-06	8	false	GAMG	8.536240e-02	6.563680e-04	5	true
2.26129e-05   	smoothSolver	5.123000e-04	7.408890e-06	5	3.989020e-03	6.592030e-06	8	false	GAMG	6.831240e-02	5.966170e-04	5	true
2.37079e-05   	smoothSolver	4.961220e-04	7.154630e-06	5	3.906320e-03	6.412330e-06	8	false	GAMG	6.690290e-02	5.849160e-04	5	true
2.4813e-05    	smoothSolver	4.819500e-04	6.935090e-06	5	3.844810e-03	6.388120e-06	8	false	GAMG	5.587770e-02	5.486900e-04	5	true
2.59258e-05   	smoothSolver	4.683460e-04	6.716980e-06	5	3.773470e-03	6.251990e-06	8	false	GAMG	5.696260e-02	5.394010e-04	5	true
2.70465e-05   	smoothSolver	4.555280e-04	6.494430e-06	5	3.712190e-03	6.175110e-06	8	false	GAMG	4.971500e-02	2.418900e-04	6	true
2.81753e-05   	smoothSolver	4.440490e-04	6.310980e-06	5	3.653470e-03	6.070750e-06	8	false	GAMG	4.962690e-02	2.357500e-04	6	true
2.93122e-05   	smoothSolver	4.330580e-04	6.129630e-06	5	3.601530e-03	6.006870e-06	8	false	GAMG	4.387170e-02	2.182200e-04	6	true
3.04575e-05   	smoothSolver	4.230590e-04	5.973750e-06	5	3.551500e-03	5.927990e-06	8	false	GAMG	4.356500e-02	2.096790e-04	6	true
3.16111e-05   	smoothSolver	4.136560e-04	5.821840e-06	5	3.506060e-03	9.907530e-06	7	false	GAMG	3.885250e-02	2.077930e-04	6	true
3.27705e-05   	smoothSolver	4.037550e-04	9.822550e-06	4	3.451470e-03	9.723150e-06	7	false	GAMG	5.702680e-02	3.615180e-04	6	true
3.39357e-05   	smoothSolver	3.894670e-04	9.621340e-06	4	3.348270e-03	9.541750e-06	7	false	GAMG	4.731110e-02	4.126410e-04	5	true
3.51067e-05   	smoothSolver	3.830930e-04	9.340170e-06	4	3.319560e-03	9.381430e-06	7	false	GAMG	4.710500e-02	2.207530e-04	6	true
3.62836e-05   	smoothSolver	3.754250e-04	9.097750e-06	4	3.276500e-03	9.224170e-06	7	false	GAMG	4.434940e-02	4.397040e-04	5	true
3.74666e-05   	smoothSolver	3.683830e-04	8.867070e-06	4	3.238710e-03	9.087680e-06	7	false	GAMG	4.362010e-02	4.212330e-04	5	true
3.86556e-05   	smoothSolver	3.618090e-04	8.652470e-06	4	3.203850e-03	8.953780e-06	7	false	GAMG	4.176070e-02	4.055130e-04	5	true
3.98508e-05   	smoothSolver	3.555880e-04	8.452590e-06	4	3.170400e-03	8.831380e-06	7	false	GAMG	4.096960e-02	3.912630e-04	5	true
4.10491e-05   	smoothSolver	3.488090e-04	8.201930e-06	4	3.130530e-03	8.624060e-06	7	false	GAMG	3.905540e-02	3.721930e-04	5	true
4.22537e-05   	smoothSolver	3.433660e-04	8.024980e-06	4	3.101140e-03	8.517890e-06	7	false	GAMG	3.826420e-02	3.642330e-04	5	true
4.34647e-05   	smoothSolver	3.381380e-04	7.858970e-06	4	3.072300e-03	8.419940e-06	7	false	GAMG	3.700930e-02	3.507390e-04	5	true
4.46789e-05   	smoothSolver	3.323640e-04	7.642340e-06	4	3.037140e-03	8.239960e-06	7	false	GAMG	3.599760e-02	3.350030e-04	5	true
4.58996e-05   	smoothSolver	3.278520e-04	7.494120e-06	4	3.012380e-03	8.157020e-06	7	false	GAMG	3.497030e-02	3.282520e-04	5	true
4.71269e-05   	smoothSolver	3.234780e-04	7.355160e-06	4	2.988370e-03	8.080500e-06	7	false	GAMG	3.436790e-02	3.171780e-04	5	true
4.83575e-05   	smoothSolver	3.184770e-04	7.166230e-06	4	2.958180e-03	7.920700e-06	7	false	GAMG	3.326760e-02	3.029010e-04	5	true
4.95949e-05   	smoothSolver	3.146270e-04	7.041830e-06	4	2.937820e-03	7.854280e-06	7	false	GAMG	3.238280e-02	2.980300e-04	5	true
5.08357e-05   	smoothSolver	3.100260e-04	6.870320e-06	4	2.909450e-03	7.706450e-06	7	false	GAMG	3.138840e-02	2.838480e-04	5	true
5.20799e-05   	smoothSolver	3.057200e-04	6.707060e-06	4	2.883010e-03	7.564630e-06	7	false	GAMG	3.060790e-02	2.756420e-04	5	true
5.33311e-05   	smoothSolver	3.024190e-04	6.605380e-06	4	2.865750e-03	7.514300e-06	7	false	GAMG	2.991770e-02	2.706380e-04	5	true
5.45857e-05   	smoothSolver	2.983880e-04	6.456320e-06	4	2.841040e-03	7.383680e-06	7	false	GAMG	2.913980e-02	2.584130e-04	5	true
5.5844e-05    	smoothSolver	2.946090e-04	6.312650e-06	4	2.818110e-03	7.257740e-06	7	false	GAMG	2.835940e-02	2.512640e-04	5	true
5.71094e-05   	smoothSolver	2.918000e-04	6.227070e-06	4	2.803830e-03	7.220480e-06	7	false	GAMG	2.783780e-02	2.474070e-04	5	true
5.83784e-05   	smoothSolver	2.882630e-04	6.095200e-06	4	2.782020e-03	7.103390e-06	7	false	GAMG	2.712110e-02	2.363620e-04	5	true
5.96511e-05   	smoothSolver	2.849680e-04	5.967730e-06	4	2.762030e-03	6.990180e-06	7	false	GAMG	2.648990e-02	2.302890e-04	5	true
6.09275e-05   	smoothSolver	2.817860e-04	5.845810e-06	4	2.742410e-03	6.881580e-06	7	false	GAMG	2.586100e-02	2.233160e-04	5	true
6.22113e-05   	smoothSolver	2.795470e-04	5.778140e-06	4	2.731320e-03	6.858600e-06	7	false	GAMG	2.543080e-02	2.207960e-04	5	true
6.34989e-05   	smoothSolver	2.765400e-04	5.665780e-06	4	2.712190e-03	6.757340e-06	7	false	GAMG	2.484830e-02	2.110810e-04	5	true
6.47903e-05   	smoothSolver	2.737170e-04	5.556920e-06	4	2.694390e-03	6.659000e-06	7	false	GAMG	2.430180e-02	2.061190e-04	5	true
6.60856e-05   	smoothSolver	2.709770e-04	9.934410e-06	3	2.676930e-03	6.564390e-06	7	false	GAMG	4.249700e-02	2.570160e-04	6	true
6.73848e-05   	smoothSolver	2.635680e-04	9.911280e-06	3	2.606260e-03	6.510030e-06	7	false	GAMG	3.903580e-02	2.139150e-04	5	true
6.86878e-05   	smoothSolver	2.625350e-04	9.721900e-06	3	2.605510e-03	6.416990e-06	7	false	GAMG	3.741850e-02	2.807890e-04	5	true
6.99948e-05   	smoothSolver	2.599740e-04	9.580220e-06	3	2.587600e-03	6.333950e-06	7	false	GAMG	3.674760e-02	2.555750e-04	5	true
7.13058e-05   	smoothSolver	2.578950e-04	9.430930e-06	3	2.575070e-03	6.255940e-06	7	false	GAMG	3.583680e-02	2.539520e-04	5	true
7.26208e-05   	smoothSolver	2.558000e-04	9.290780e-06	3	2.561680e-03	6.176930e-06	7	false	GAMG	3.526240e-02	2.467360e-04	5	true
7.39358e-05   	smoothSolver	2.530220e-04	9.081010e-06	3	2.541170e-03	6.027420e-06	7	false	GAMG	3.429840e-02	2.365890e-04	5	true
7.52549e-05   	smoothSolver	2.511730e-04	8.948230e-06	3	2.529390e-03	5.954420e-06	7	false	GAMG	3.375620e-02	2.353880e-04	5	true
7.65781e-05   	smoothSolver	2.493150e-04	8.820950e-06	3	2.517120e-03	5.887210e-06	7	false	GAMG	3.310580e-02	2.288010e-04	5	true
7.79055e-05   	smoothSolver	2.475420e-04	8.697830e-06	3	2.505380e-03	9.946150e-06	6	false	GAMG	3.066530e-02	2.475680e-04	5	true
7.92328e-05   	smoothSolver	2.448330e-04	8.509820e-06	3	2.484350e-03	9.762010e-06	6	false	GAMG	3.028330e-02	2.224430e-04	5	true
8.05643e-05   	smoothSolver	2.432990e-04	8.393860e-06	3	2.474490e-03	9.648760e-06	6	false	GAMG	2.973310e-02	2.253780e-04	5	true
8.19001e-05   	smoothSolver	2.416560e-04	8.283220e-06	3	2.463520e-03	9.555080e-06	6	false	GAMG	2.918270e-02	2.185850e-04	5	true
8.32359e-05   	smoothSolver	2.393470e-04	8.109040e-06	3	2.445470e-03	9.343640e-06	6	false	GAMG	2.857700e-02	2.102020e-04	5	true
8.4576e-05    	smoothSolver	2.379020e-04	8.004140e-06	3	2.436300e-03	9.252330e-06	6	false	GAMG	2.806290e-02	2.097840e-04	5	true
8.59204e-05   	smoothSolver	2.364390e-04	7.905130e-06	3	2.426580e-03	9.162580e-06	6	false	GAMG	2.766940e-02	2.045170e-04	5	true
8.72648e-05   	smoothSolver	2.342770e-04	7.743140e-06	3	2.409530e-03	8.966170e-06	6	false	GAMG	2.701820e-02	1.964890e-04	5	true
8.86136e-05   	smoothSolver	2.329830e-04	7.650020e-06	3	2.401180e-03	8.880770e-06	6	false	GAMG	2.663300e-02	1.964750e-04	5	true
8.99624e-05   	smoothSolver	2.309000e-04	7.497380e-06	3	2.384720e-03	8.692660e-06	6	false	GAMG	2.603720e-02	1.876810e-04	5	true
9.13157e-05   	smoothSolver	2.297020e-04	7.410220e-06	3	2.377210e-03	8.613170e-06	6	false	GAMG	2.567390e-02	1.881280e-04	5	true
9.26734e-05   	smoothSolver	2.284650e-04	7.327530e-06	3	2.369060e-03	8.539170e-06	6	false	GAMG	2.527020e-02	1.835120e-04	5	true
9.40312e-05   	smoothSolver	2.265370e-04	7.184260e-06	3	2.353510e-03	8.359350e-06	6	false	GAMG	2.475680e-02	1.764660e-04	5	true
9.53935e-05   	smoothSolver	2.254580e-04	7.105040e-06	3	2.346610e-03	8.288250e-06	6	false	GAMG	2.448900e-02	1.769280e-04	5	true
9.67558e-05   	smoothSolver	2.236000e-04	6.968740e-06	3	2.331310e-03	8.116050e-06	6	false	GAMG	2.401320e-02	1.688920e-04	5	true
9.81227e-05   	smoothSolver	2.226110e-04	6.894490e-06	3	2.325010e-03	8.049460e-06	6	false	GAMG	2.356800e-02	1.697920e-04	5	true
9.94897e-05   	smoothSolver	2.208280e-04	6.764210e-06	3	2.310340e-03	7.883800e-06	6	false	GAMG	2.312510e-02	1.621800e-04	5	true
0.000100861   	smoothSolver	2.199030e-04	6.694720e-06	3	2.304510e-03	7.821610e-06	6	false	GAMG	2.279980e-02	1.631480e-04	5	true
0.000102233   	smoothSolver	2.181900e-04	6.570110e-06	3	2.290120e-03	7.662070e-06	6	false	GAMG	2.240730e-02	1.558730e-04	5	true
0.000103609   	smoothSolver	2.173310e-04	6.505140e-06	3	2.284520e-03	7.604020e-06	6	false	GAMG	2.208990e-02	1.568890e-04	5	true
0.000104986   	smoothSolver	2.156820e-04	6.385790e-06	3	2.270370e-03	7.450130e-06	6	false	GAMG	2.163380e-02	1.499110e-04	5	true
0.000106367   	smoothSolver	2.148820e-04	6.325020e-06	3	2.265050e-03	7.395880e-06	6	false	GAMG	2.135420e-02	1.510780e-04	5	true
0.000107748   	smoothSolver	2.132930e-04	6.210650e-06	3	2.251230e-03	7.247300e-06	6	false	GAMG	2.095880e-02	1.443530e-04	5	true
0.000109134   	smoothSolver	2.125490e-04	6.153980e-06	3	2.246220e-03	7.196630e-06	6	false	GAMG	2.071530e-02	1.456130e-04	5	true
0.00011052    	smoothSolver	2.110160e-04	6.044760e-06	3	2.232720e-03	7.053150e-06	6	false	GAMG	2.034100e-02	1.391350e-04	5	true
0.000111911   	smoothSolver	2.103250e-04	5.992430e-06	3	2.228070e-03	7.006010e-06	6	false	GAMG	2.006470e-02	1.404770e-04	5	true
0.000113302   	smoothSolver	2.088450e-04	5.887770e-06	3	2.214970e-03	6.867370e-06	6	false	GAMG	1.970280e-02	1.342580e-04	5	true
0.000114693   	smoothSolver	2.074580e-04	5.783660e-06	3	2.202810e-03	6.729970e-06	6	false	GAMG	1.934580e-02	1.325120e-04	5	true
0.000116089   	smoothSolver	2.068260e-04	5.736960e-06	3	2.198550e-03	6.688470e-06	6	false	GAMG	1.914400e-02	1.328610e-04	5	true
0.000117485   	smoothSolver	2.054310e-04	5.638540e-06	3	2.185950e-03	6.557340e-06	6	false	GAMG	1.878860e-02	1.272760e-04	5	true
0.000118886   	smoothSolver	2.048650e-04	5.594370e-06	3	2.182010e-03	6.518120e-06	6	false	GAMG	1.858670e-02	1.287100e-04	5	true
0.000120287   	smoothSolver	2.035160e-04	5.499650e-06	3	2.169540e-03	6.391240e-06	6	false	GAMG	1.830660e-02	1.230760e-04	5	true
0.000121689   	smoothSolver	2.022560e-04	5.405330e-06	3	2.157830e-03	6.265210e-06	6	false	GAMG	1.799850e-02	1.216140e-04	5	true
0.000123095   	smoothSolver	2.017480e-04	5.366020e-06	3	2.154030e-03	6.231040e-06	6	false	GAMG	1.785470e-02	1.222520e-04	5	true
0.000124501   	smoothSolver	2.004730e-04	5.276770e-06	3	2.141930e-03	6.110780e-06	6	false	GAMG	1.755960e-02	1.169910e-04	5	true
0.000125913   	smoothSolver	2.000180e-04	5.239620e-06	3	2.138610e-03	6.078550e-06	6	false	GAMG	1.726130e-02	1.186230e-04	5	true
0.000127325   	smoothSolver	1.987750e-04	5.153640e-06	3	2.126750e-03	5.962010e-06	6	false	GAMG	1.697850e-02	1.134480e-04	5	true
0.000128736   	smoothSolver	1.976110e-04	5.067810e-06	3	2.115800e-03	5.846100e-06	6	false	GAMG	1.669900e-02	1.123710e-04	5	true
0.000130153   	smoothSolver	1.971970e-04	5.035010e-06	3	2.113070e-03	5.818260e-06	6	false	GAMG	1.657220e-02	1.130490e-04	5	true
0.00013157    	smoothSolver	1.960120e-04	4.953790e-06	3	2.102050e-03	5.707520e-06	6	false	GAMG	1.633890e-02	1.083960e-04	5	true
0.000132987   	smoothSolver	1.948980e-04	4.872760e-06	3	2.091670e-03	5.597440e-06	6	false	GAMG	1.604010e-02	1.072540e-04	5	true
0.00013441    	smoothSolver	1.945390e-04	4.843540e-06	3	2.089260e-03	9.999370e-06	5	false	GAMG	1.477460e-02	1.333950e-04	5	true
0.000135832   	smoothSolver	1.932340e-04	9.978330e-06	2	2.077240e-03	9.875580e-06	5	false	GAMG	2.964080e-02	1.602260e-04	6	true
0.000137255   	smoothSolver	1.885470e-04	4.835890e-06	3	2.025350e-03	9.875630e-06	5	false	GAMG	1.554050e-02	7.785670e-05	6	true
0.000138677   	smoothSolver	1.922870e-04	9.649820e-06	2	2.069010e-03	9.465780e-06	5	false	GAMG	2.880240e-02	1.829300e-04	6	true
0.000140106   	smoothSolver	1.871370e-04	9.894870e-06	2	2.011750e-03	9.676160e-06	5	false	GAMG	2.805670e-02	2.462130e-04	4	true
0.000141534   	smoothSolver	1.872530e-04	9.713720e-06	2	2.014220e-03	9.445560e-06	5	false	GAMG	2.627800e-02	1.489720e-04	5	true
0.000142962   	smoothSolver	1.861600e-04	9.597250e-06	2	2.002600e-03	9.292150e-06	5	false	GAMG	2.624530e-02	1.378050e-04	5	true
0.000144396   	smoothSolver	1.860460e-04	9.557290e-06	2	2.002000e-03	9.260110e-06	5	false	GAMG	2.591790e-02	1.412900e-04	5	true
0.00014583    	smoothSolver	1.851020e-04	9.438300e-06	2	1.992230e-03	9.098290e-06	5	false	GAMG	2.559940e-02	1.356070e-04	5	true
0.000147264   	smoothSolver	1.842440e-04	9.316130e-06	2	1.983510e-03	8.941500e-06	5	false	GAMG	2.516110e-02	1.346040e-04	5	true
0.000148697   	smoothSolver	1.833810e-04	9.197820e-06	2	1.974530e-03	8.784070e-06	5	false	GAMG	2.484390e-02	1.326660e-04	5	true
0.000150137   	smoothSolver	1.832760e-04	9.165770e-06	2	1.973740e-03	8.759820e-06	5	false	GAMG	2.458640e-02	1.340540e-04	5	true
0.000151577   	smoothSolver	1.823830e-04	9.052830e-06	2	1.964310e-03	8.610110e-06	5	false	GAMG	2.426780e-02	1.291260e-04	5	true
0.000153017   	smoothSolver	1.815580e-04	8.937830e-06	2	1.955630e-03	8.462060e-06	5	false	GAMG	2.389750e-02	1.281540e-04	5	true
0.000154457   	smoothSolver	1.807300e-04	8.825910e-06	2	1.946800e-03	8.315910e-06	5	false	GAMG	2.360020e-02	1.263830e-04	5	true
0.000155902   	smoothSolver	1.806660e-04	8.799080e-06	2	1.946170e-03	8.296340e-06	5	false	GAMG	2.339440e-02	1.278420e-04	5	true
0.000157348   	smoothSolver	1.798090e-04	8.692390e-06	2	1.936950e-03	8.156980e-06	5	false	GAMG	2.310170e-02	1.231040e-04	5	true
0.000158794   	smoothSolver	1.790180e-04	8.583810e-06	2	1.928470e-03	8.017480e-06	5	false	GAMG	2.274790e-02	1.222710e-04	5	true
0.00016024    	smoothSolver	1.782240e-04	8.478020e-06	2	1.919870e-03	7.880900e-06	5	false	GAMG	2.248260e-02	1.206370e-04	5	true
0.000161685   	smoothSolver	1.774440e-04	8.373710e-06	2	1.911410e-03	7.747670e-06	5	false	GAMG	2.217920e-02	1.191770e-04	5	true
0.000163137   	smoothSolver	1.774300e-04	8.352960e-06	2	1.911200e-03	7.733480e-06	5	false	GAMG	2.207310e-02	1.206590e-04	5	true
0.000164589   	smoothSolver	1.766190e-04	8.253760e-06	2	1.902420e-03	7.606300e-06	5	false	GAMG	2.179260e-02	1.162210e-04	5	true
0.000166041   	smoothSolver	1.758720e-04	8.152980e-06	2	1.894280e-03	7.477010e-06	5	false	GAMG	2.140630e-02	1.155070e-04	5	true
0.000167493   	smoothSolver	1.751210e-04	8.054610e-06	2	1.886040e-03	7.351870e-06	5	false	GAMG	2.112010e-02	1.140120e-04	5	true
0.000168952   	smoothSolver	1.751460e-04	8.038570e-06	2	1.886110e-03	7.342260e-06	5	false	GAMG	2.099760e-02	1.156060e-04	5	true
0.00017041    	smoothSolver	1.743700e-04	7.945480e-06	2	1.877600e-03	7.222590e-06	5	false	GAMG	2.072320e-02	1.112950e-04	5	true
0.000171869   	smoothSolver	1.736550e-04	7.850550e-06	2	1.869820e-03	7.100940e-06	5	false	GAMG	2.043440e-02	1.106950e-04	5	true
0.000173327   	smoothSolver	1.729340e-04	7.757810e-06	2	1.861950e-03	6.983090e-06	5	false	GAMG	2.020300e-02	1.093180e-04	5	true
0.000174785   	smoothSolver	1.722250e-04	7.666490e-06	2	1.854140e-03	6.867020e-06	5	false	GAMG	1.995700e-02	1.081070e-04	5	true
0.000176244   	smoothSolver	1.715250e-04	7.576570e-06	2	1.846410e-03	6.753460e-06	5	false	GAMG	1.967190e-02	1.069320e-04	5	true
0.000177709   	smoothSolver	1.716060e-04	7.566520e-06	2	1.847020e-03	6.750120e-06	5	false	GAMG	1.961820e-02	1.085420e-04	5	true
0.000179174   	smoothSolver	1.708790e-04	7.481030e-06	2	1.838890e-03	6.641780e-06	5	false	GAMG	1.938250e-02	1.045030e-04	5	true
0.000180639   	smoothSolver	1.702130e-04	7.393620e-06	2	1.831390e-03	6.531520e-06	5	false	GAMG	1.908490e-02	1.040250e-04	5	true
0.000182103   	smoothSolver	1.695420e-04	7.308270e-06	2	1.823870e-03	6.424610e-06	5	false	GAMG	1.880800e-02	1.027980e-04	5	true
0.000183568   	smoothSolver	1.688800e-04	7.224110e-06	2	1.816430e-03	6.319370e-06	5	false	GAMG	1.857420e-02	1.017720e-04	5	true
0.00018504    	smoothSolver	1.690050e-04	7.218370e-06	2	1.817400e-03	6.320670e-06	5	false	GAMG	1.846780e-02	1.034020e-04	5	true
0.000186512   	smoothSolver	1.683120e-04	7.138430e-06	2	1.809520e-03	6.220410e-06	5	false	GAMG	1.825380e-02	9.959780e-05	5	true
0.000187984   	smoothSolver	1.676780e-04	7.056520e-06	2	1.802200e-03	6.118270e-06	5	false	GAMG	1.801130e-02	9.919810e-05	5	true
0.000189456   	smoothSolver	1.670390e-04	6.976560e-06	2	1.794760e-03	6.019150e-06	5	false	GAMG	1.781220e-02	9.807420e-05	5	true
0.000190927   	smoothSolver	1.664080e-04	6.897670e-06	2	1.787410e-03	5.921640e-06	5	false	GAMG	1.764470e-02	9.712650e-05	5	true
0.000192399   	smoothSolver	1.657830e-04	6.820010e-06	2	1.780040e-03	5.826060e-06	5	false	GAMG	1.744830e-02	9.622870e-05	5	true
0.000193878   	smoothSolver	1.659580e-04	6.819020e-06	2	1.781260e-03	5.832060e-06	5	false	GAMG	1.736180e-02	9.788750e-05	5	true
0.000195357   	smoothSolver	1.653040e-04	6.745370e-06	2	1.773550e-03	5.741000e-06	5	false	GAMG	1.716110e-02	9.428780e-05	5	true
0.000196836   	smoothSolver	1.647040e-04	6.669600e-06	2	1.766430e-03	5.647920e-06	5	false	GAMG	1.687840e-02	9.398180e-05	5	true
0.000198314   	smoothSolver	1.640980e-04	6.595690e-06	2	1.759220e-03	5.557700e-06	5	false	GAMG	1.678730e-02	9.302370e-05	5	true
0.000199793   	smoothSolver	1.635010e-04	6.522840e-06	2	1.752080e-03	5.468920e-06	5	false	GAMG	1.659740e-02	9.211830e-05	5	true
0.000201272   	smoothSolver	1.629080e-04	6.451200e-06	2	1.745100e-03	5.381870e-06	5	false	GAMG	1.627060e-02	9.133180e-05	5	true
0.000202758   	smoothSolver	1.631290e-04	6.455000e-06	2	1.746770e-03	5.392110e-06	5	false	GAMG	1.620700e-02	9.305140e-05	5	true
0.000204245   	smoothSolver	1.625090e-04	6.387380e-06	2	1.739390e-03	5.309260e-06	5	false	GAMG	1.602370e-02	8.963130e-05	5	true
0.000205731   	smoothSolver	1.619400e-04	6.317660e-06	2	1.732520e-03	5.224270e-06	5	false	GAMG	1.582030e-02	8.942240e-05	5	true
0.000207217   	smoothSolver	1.613660e-04	6.249640e-06	2	1.725540e-03	9.994230e-06	4	false	GAMG	1.436500e-02	1.090250e-04	5	true
0.000208703   	smoothSolver	1.606650e-04	6.186000e-06	2	1.717960e-03	9.918820e-06	4	false	GAMG	1.441570e-02	9.765940e-05	5	true
0.000210189   	smoothSolver	1.601380e-04	6.118640e-06	2	1.711310e-03	9.760770e-06	4	false	GAMG	1.427510e-02	9.886900e-05	5	true
0.000211676   	smoothSolver	1.595760e-04	6.053500e-06	2	1.704390e-03	9.622950e-06	4	false	GAMG	1.411780e-02	9.742050e-05	5	true
0.00021317    	smoothSolver	1.598530e-04	6.062040e-06	2	1.706450e-03	9.643280e-06	4	false	GAMG	1.401100e-02	9.941450e-05	5	true
0.000214663   	smoothSolver	1.592690e-04	6.000310e-06	2	1.699420e-03	9.509120e-06	4	false	GAMG	1.391990e-02	9.578150e-05	5	true
0.000216157   	smoothSolver	1.587390e-04	5.936460e-06	2	1.692940e-03	9.368680e-06	4	false	GAMG	1.380530e-02	9.547830e-05	5	true
0.000217651   	smoothSolver	1.582030e-04	5.874110e-06	2	1.686440e-03	9.233680e-06	4	false	GAMG	1.359280e-02	9.452800e-05	5	true
0.000219145   	smoothSolver	1.576770e-04	5.812590e-06	2	1.679990e-03	9.099450e-06	4	false	GAMG	1.342170e-02	9.374760e-05	5	true
0.000220639   	smoothSolver	1.571550e-04	5.751940e-06	2	1.673610e-03	8.968390e-06	4	false	GAMG	1.327260e-02	9.292410e-05	5	true
0.000222133   	smoothSolver	1.566390e-04	5.692260e-06	2	1.667300e-03	8.838850e-06	4	false	GAMG	1.313660e-02	9.214220e-05	5	true
0.000223627   	smoothSolver	1.561270e-04	5.633410e-06	2	1.661010e-03	8.712020e-06	4	false	GAMG	1.299460e-02	9.136990e-05	5	true
0.000225129   	smoothSolver	1.564630e-04	5.646740e-06	2	1.663720e-03	8.741500e-06	4	false	GAMG	1.295480e-02	9.327120e-05	5	true
0.000226631   	smoothSolver	1.559200e-04	5.591180e-06	2	1.657070e-03	8.621070e-06	4	false	GAMG	1.282180e-02	8.985850e-05	5	true
0.000228133   	smoothSolver	1.554260e-04	5.533240e-06	2	1.650840e-03	8.495980e-06	4	false	GAMG	1.268400e-02	8.969300e-05	5	true
0.000229635   	smoothSolver	1.549270e-04	5.476820e-06	2	1.644540e-03	8.374980e-06	4	false	GAMG	1.257220e-02	8.883300e-05	5	true
0.000231137   	smoothSolver	1.544350e-04	5.421060e-06	2	1.638300e-03	8.255330e-06	4	false	GAMG	1.244480e-02	8.816260e-05	5	true
0.000232639   	smoothSolver	1.539460e-04	5.366120e-06	2	1.632090e-03	8.137970e-06	4	false	GAMG	1.230230e-02	8.745030e-05	5	true
0.000234141   	smoothSolver	1.534610e-04	5.311930e-06	2	1.625900e-03	8.022410e-06	4	false	GAMG	1.218360e-02	8.675850e-05	5	true
0.000235643   	smoothSolver	1.529790e-04	5.258540e-06	2	1.619760e-03	7.908870e-06	4	false	GAMG	1.206770e-02	8.609770e-05	5	true
0.000237145   	smoothSolver	1.525020e-04	5.205930e-06	2	1.613650e-03	7.797120e-06	4	false	GAMG	1.194530e-02	8.541850e-05	5	true
0.000238656   	smoothSolver	1.529000e-04	5.224130e-06	2	1.616830e-03	7.834370e-06	4	false	GAMG	1.190950e-02	8.737040e-05	5	true
0.000240166   	smoothSolver	1.523930e-04	5.174780e-06	2	1.610460e-03	7.728550e-06	4	false	GAMG	1.179200e-02	8.412710e-05	5	true
0.000241677   	smoothSolver	1.519320e-04	5.123050e-06	2	1.604540e-03	7.618380e-06	4	false	GAMG	1.168660e-02	8.405700e-05	5	true
0.000243188   	smoothSolver	1.514660e-04	5.072760e-06	2	1.598590e-03	7.511750e-06	4	false	GAMG	1.156690e-02	8.329840e-05	5	true
0.000244698   	smoothSolver	1.510050e-04	5.023030e-06	2	1.592680e-03	7.406460e-06	4	false	GAMG	1.144310e-02	8.271520e-05	5	true
0.000246209   	smoothSolver	1.505460e-04	4.974010e-06	2	1.586770e-03	7.303050e-06	4	false	GAMG	1.134430e-02	8.211090e-05	5	true
0.00024772    	smoothSolver	1.500920e-04	4.925640e-06	2	1.580890e-03	7.201330e-06	4	false	GAMG	1.126080e-02	8.151330e-05	5	true
0.00024923    	smoothSolver	1.496430e-04	4.877890e-06	2	1.575030e-03	7.101310e-06	4	false	GAMG	1.116470e-02	8.090870e-05	5	true
0.000250741   	smoothSolver	1.491990e-04	4.830800e-06	2	1.569190e-03	7.002930e-06	4	false	GAMG	1.102850e-02	8.034710e-05	5	true
0.000252261   	smoothSolver	1.496650e-04	4.853550e-06	2	1.572890e-03	7.046950e-06	4	false	GAMG	1.101030e-02	8.233280e-05	5	true
0.000253781   	smoothSolver	1.491930e-04	4.809400e-06	2	1.566710e-03	6.954010e-06	4	false	GAMG	1.092470e-02	7.922720e-05	5	true
0.000255301   	smoothSolver	1.487640e-04	4.762730e-06	2	1.560950e-03	6.856610e-06	4	false	GAMG	1.079650e-02	7.921560e-05	5	true
0.000256821   	smoothSolver	1.483290e-04	4.717330e-06	2	1.555170e-03	6.762550e-06	4	false	GAMG	1.070160e-02	7.854960e-05	5	true
0.00025834    	smoothSolver	1.479000e-04	4.672380e-06	2	1.549500e-03	6.669560e-06	4	false	GAMG	1.062620e-02	7.806240e-05	5	true
0.00025986    	smoothSolver	1.474740e-04	4.628120e-06	2	1.543930e-03	6.578260e-06	4	false	GAMG	1.051480e-02	7.747470e-05	5	true
0.00026138    	smoothSolver	1.470510e-04	4.584420e-06	2	1.538440e-03	6.488420e-06	4	false	GAMG	1.037550e-02	7.697940e-05	5	true
0.0002629     	smoothSolver	1.466330e-04	4.541280e-06	2	1.533000e-03	6.400110e-06	4	false	GAMG	1.028220e-02	7.647110e-05	5	true
0.00026442    	smoothSolver	1.462170e-04	4.498710e-06	2	1.527610e-03	6.313210e-06	4	false	GAMG	1.018230e-02	7.596160e-05	5	true
0.00026594    	smoothSolver	1.458030e-04	4.456660e-06	2	1.522290e-03	6.227830e-06	4	false	GAMG	1.010000e-02	7.547000e-05	5	true
0.00026746    	smoothSolver	1.453930e-04	4.415180e-06	2	1.516970e-03	6.143830e-06	4	false	GAMG	1.001140e-02	7.496220e-05	5	true
0.00026899    	smoothSolver	1.459400e-04	4.442780e-06	2	1.521570e-03	6.195170e-06	4	false	GAMG	1.001500e-02	7.698800e-05	5	true
0.000270519   	smoothSolver	1.455040e-04	4.404080e-06	2	1.515910e-03	6.116090e-06	4	false	GAMG	9.965950e-03	7.403650e-05	5	true
0.000272049   	smoothSolver	1.451090e-04	4.362800e-06	2	1.510610e-03	6.032580e-06	4	false	GAMG	9.868740e-03	7.406420e-05	5	true
0.000273579   	smoothSolver	1.447060e-04	4.322710e-06	2	1.505260e-03	5.952120e-06	4	false	GAMG	9.731820e-03	7.348140e-05	5	true
0.000275109   	smoothSolver	1.443090e-04	4.283020e-06	2	1.499940e-03	5.872570e-06	4	false	GAMG	9.658560e-03	7.305960e-05	5	true
0.000276639   	smoothSolver	1.439150e-04	4.243900e-06	2	1.494630e-03	5.794470e-06	4	false	GAMG	9.598740e-03	7.257630e-05	5	true
0.000278169   	smoothSolver	1.435240e-04	4.205270e-06	2	1.489370e-03	5.717610e-06	4	false	GAMG	9.500890e-03	7.212820e-05	5	true
0.000279699   	smoothSolver	1.431350e-04	4.167200e-06	2	1.484120e-03	5.642040e-06	4	false	GAMG	9.383150e-03	7.168770e-05	5	true
0.000281229   	smoothSolver	1.427500e-04	4.129650e-06	2	1.478910e-03	5.567700e-06	4	false	GAMG	9.303730e-03	7.124700e-05	5	true
0.000282758   	smoothSolver	1.423670e-04	4.092590e-06	2	1.473730e-03	5.494570e-06	4	false	GAMG	9.219260e-03	7.081390e-05	5	true
0.000284288   	smoothSolver	1.419880e-04	4.056040e-06	2	1.468600e-03	5.422630e-06	4	false	GAMG	9.143420e-03	7.038530e-05	5	true
0.000285818   	smoothSolver	1.416120e-04	4.019960e-06	2	1.463520e-03	5.351850e-06	4	false	GAMG	9.066160e-03	6.996340e-05	5	true
0.000287348   	smoothSolver	1.412380e-04	3.984330e-06	2	1.458520e-03	5.282230e-06	4	false	GAMG	9.002420e-03	6.954800e-05	5	true
0.000288889   	smoothSolver	1.418860e-04	4.017610e-06	2	1.464030e-03	5.341250e-06	4	false	GAMG	9.011720e-03	7.161230e-05	5	true
0.00029043    	smoothSolver	1.414840e-04	3.984620e-06	2	1.458720e-03	5.276040e-06	4	false	GAMG	8.929590e-03	6.876040e-05	5	true
0.000291971   	smoothSolver	1.411220e-04	3.948950e-06	2	1.453760e-03	5.206360e-06	4	false	GAMG	8.844410e-03	6.887550e-05	5	true
0.000293512   	smoothSolver	1.407540e-04	3.914400e-06	2	1.448710e-03	5.139470e-06	4	false	GAMG	8.777390e-03	6.835980e-05	5	true
0.000295053   	smoothSolver	1.403910e-04	3.880110e-06	2	1.443700e-03	5.073200e-06	4	false	GAMG	8.756070e-03	6.799860e-05	5	true
0.000296594   	smoothSolver	1.400310e-04	3.846270e-06	2	1.438700e-03	5.008180e-06	4	false	GAMG	8.680700e-03	6.756510e-05	5	true
0.000298135   	smoothSolver	1.396740e-04	3.812820e-06	2	1.433740e-03	4.944140e-06	4	false	GAMG	8.556150e-03	6.719490e-05	5	true
0.000299676   	smoothSolver	1.393200e-04	3.779780e-06	2	1.428800e-03	4.881180e-06	4	false	GAMG	8.487600e-03	6.681570e-05	5	true
0.000301217   	smoothSolver	1.389690e-04	3.747160e-06	2	1.423870e-03	4.819220e-06	4	false	GAMG	8.443650e-03	6.643180e-05	5	true
0.000302758   	smoothSolver	1.386200e-04	3.714950e-06	2	1.419000e-03	4.758220e-06	4	false	GAMG	8.373370e-03	6.605660e-05	5	true
0.000304299   	smoothSolver	1.382730e-04	3.683110e-06	2	1.414210e-03	4.698240e-06	4	false	GAMG	8.285570e-03	6.568590e-05	5	true
0.000305839   	smoothSolver	1.379300e-04	3.651630e-06	2	1.409490e-03	4.639220e-06	4	false	GAMG	8.221690e-03	6.531950e-05	5	true
0.00030738    	smoothSolver	1.375880e-04	3.620530e-06	2	1.404840e-03	4.581160e-06	4	false	GAMG	8.163760e-03	6.495870e-05	5	true
0.000308921   	smoothSolver	1.372480e-04	3.589800e-06	2	1.400220e-03	4.524050e-06	4	false	GAMG	8.102770e-03	6.459120e-05	5	true
0.000310462   	smoothSolver	1.369100e-04	3.559450e-06	2	1.395650e-03	9.973560e-06	3	false	GAMG	7.420290e-03	3.979790e-05	6	true
0.000312016   	smoothSolver	1.376050e-04	3.600620e-06	2	1.402490e-03	4.585780e-06	4	false	GAMG	8.408490e-03	6.118360e-05	5	true
0.00031357    	smoothSolver	1.373470e-04	3.570530e-06	2	1.397760e-03	9.981730e-06	3	false	GAMG	7.442980e-03	4.006350e-05	6	true
0.000315123   	smoothSolver	1.369090e-04	3.542140e-06	2	1.393150e-03	9.967380e-06	3	false	GAMG	7.479050e-03	3.593740e-05	6	true
0.000316677   	smoothSolver	1.365980e-04	3.511960e-06	2	1.388640e-03	9.837690e-06	3	false	GAMG	7.407840e-03	3.628110e-05	6	true
0.00031823    	smoothSolver	1.362640e-04	3.482500e-06	2	1.384100e-03	9.732920e-06	3	false	GAMG	7.344260e-03	3.590600e-05	6	true