# Probe 0 (-0.0103 0 0.005)
# Probe 1 (-0.0101 0.0018 0.005)
# Probe 2 (-0.0096 0.0035 0.005)
# Probe 3 (-0.0089 0.0051 0.005)
# Probe 4 (-0.0079 0.0066 0.005)
# Probe 5 (-0.0066 0.0079 0.005)
# Probe 6 (-0.0051 0.0089 0.005)
# Probe 7 (-0.0035 0.0096 0.005)
# Probe 8 (-0.0018 0.0101 0.005)
# Probe 9 (0 0.0103 0.005)
# Probe 10 (0.0018 0.0101 0.005)
# Probe 11 (0.0035 0.0096 0.005)
# Probe 12 (0.0051 0.0089 0.005)
# Probe 13 (0.0066 0.0079 0.005)
# Probe 14 (0.0079 0.0066 0.005)
# Probe 15 (0.0089 0.0051 0.005)
# Probe 16 (0.0096 0.0035 0.005)
# Probe 17 (0.0101 0.0018 0.005)
# Probe 18 (0.0103 0 0.005)
# Time        0             1             2             3             4             5             6             7             8             9             10            11            12            13            14            15            16            17            18           
100           0.01542       0.0146335     0.0121231     0.00810124    0.00298897    -0.00264561   -0.00820857   -0.0130938    -0.0168055    -0.0190161    -0.0197934    -0.0193817    -0.0177845    -0.0153479    -0.012496     -0.00971563   -0.00741194   -0.00590649   -0.00541634  
200           0.0136792     0.012914      0.0105037     0.00669777    0.00191843    -0.00329006   -0.00835637   -0.0127359    -0.0159964    -0.0179196    -0.0185011    -0.0179383    -0.016291     -0.0139036    -0.0111789    -0.00855505   -0.00639575   -0.00499126   -0.00453696  
300           0.0131045     0.012342      0.00995315    0.00621461    0.00156409    -0.00345778   -0.00828909   -0.0124165    -0.0154536    -0.01723      -0.017707     -0.0170915    -0.0154764    -0.0131996    -0.0106426    -0.00820205   -0.00620691   -0.00491588   -0.0044999   
400           0.0129033     0.0121382     0.0097489     0.00603026    0.00143636    -0.00348781   -0.00818427   -0.0121592    -0.0150681    -0.0167387    -0.0171502    -0.0165158    -0.0149504    -0.0127854    -0.0103839    -0.00810927   -0.00626084   -0.00507021   -0.00468773  
500           0.0128387     0.0120702     0.00967441    0.00595924    0.00139222    -0.00347518   -0.00808569   -0.0119594    -0.0147828    -0.0163788    -0.0167514    -0.0161206    -0.0146158    -0.0125623    -0.0103058    -0.00818177   -0.00646418   -0.0053618    -0.00500843  
600           0.0128695     0.0120985     0.00969816    0.00598499    0.00143661    -0.00338944   -0.00793563   -0.0117356    -0.0144901    -0.0160295    -0.016378     -0.0157622    -0.0143224    -0.0123769    -0.0102552    -0.00826816   -0.00666732   -0.00564247   -0.00531444  
700           0.0129597     0.012188      0.00978736    0.00608001    0.00155038    -0.00323956   -0.00773212   -0.0114731    -0.0141704    -0.0156668    -0.0160019    -0.0154101    -0.0140387    -0.012199     -0.0102045    -0.00834362   -0.00684809   -0.00589205   -0.0055863   
800           0.0130605     0.0122898     0.00989351    0.00619733    0.00168986    -0.00306437   -0.00750821   -0.011198     -0.0138466    -0.0153095    -0.0156391    -0.015077     -0.0137761    -0.0120398    -0.0101659    -0.00842213   -0.00702235   -0.00612785   -0.00584183  
900           0.0131536     0.0123853     0.00999748    0.00631762    0.00183654    -0.00288021   -0.00727695   -0.0109195    -0.0135247    -0.0149602    -0.0152886    -0.0147594    -0.0135286    -0.0118921    -0.0101322    -0.00849687   -0.00718429   -0.00634498   -0.0060765   
1000          0.0132381     0.0124733     0.0100969     0.00643739    0.00198631    -0.00269097   -0.00704092   -0.0106382    -0.0132032    -0.0146149    -0.0149446    -0.0144487    -0.013286     -0.0117444    -0.0100912    -0.0085562    -0.00732304   -0.00653331   -0.00628046  
1100          0.0133147     0.012554      0.0101911     0.0065545     0.00213579    -0.00250072   -0.00680434   -0.0103574    -0.0128844    -0.0142745    -0.0146063    -0.0141427    -0.0130443    -0.0115917    -0.0100377    -0.00859507   -0.00743417   -0.00668902   -0.00645004  
1200          0.0133847     0.0126285     0.0102801     0.0066678     0.00228256    -0.00231289   -0.00657105   -0.010081     -0.0125719    -0.0139417    -0.0142756    -0.0138419    -0.0128032    -0.0114327    -0.00997001   -0.00861196   -0.00751665   -0.00681148   -0.0065848   
1300          0.0134484     0.0126968     0.0103632     0.00677564    0.00242389    -0.0021311    -0.00634525   -0.00981367   -0.0122702    -0.0136208    -0.0139562    -0.0135498    -0.0125654    -0.0112698    -0.00989024   -0.00860903   -0.00757293   -0.00690361   -0.00668797  
1400          0.0135038     0.0127567     0.0104379     0.00687468    0.0025557     -0.00196017   -0.00613236   -0.00956119   -0.0119852    -0.0133176    -0.0136541    -0.0132719    -0.0123364    -0.0111082    -0.0098037    -0.00859182   -0.00760901   -0.00697181   -0.00676606  
1500          0.0135486     0.0128061     0.0105016     0.00696198    0.00267451    -0.00180405   -0.00593658   -0.00932816   -0.0117219    -0.0130373    -0.0133742    -0.0130135    -0.0121214    -0.0109535    -0.0097161    -0.00856633   -0.0076313    -0.00702284   -0.0068259   
1600          0.0135827     0.0128445     0.0105538     0.00703667    0.00277916    -0.00166418   -0.00575956   -0.00911643   -0.0114821    -0.0127817    -0.0131189    -0.0127771    -0.0119234    -0.0108089    -0.00963118   -0.00853674   -0.00764437   -0.00706154   -0.00687246  
1700          0.0136074     0.0128732     0.0105956     0.00709983    0.00287055    -0.00153979   -0.00560061   -0.00892538   -0.0112654    -0.0125506    -0.0128878    -0.0125626    -0.0117428    -0.0106755    -0.00955052   -0.00850513   -0.00765071   -0.00709072   -0.00690863  
1800          0.0136247     0.0128944     0.0106291     0.00715341    0.0029506     -0.00142898   -0.00545786   -0.0087531    -0.0110696    -0.0123418    -0.012679     -0.0123686    -0.0115788    -0.0105529    -0.00947441   -0.00847237   -0.00765161   -0.00711194   -0.0069361   
1900          0.0136365     0.0129098     0.0106561     0.0071992     0.00302109    -0.00132994   -0.00532937   -0.00859756   -0.0108928    -0.0121533    -0.0124906    -0.0121934    -0.01143      -0.0104406    -0.0094029    -0.00843906   -0.00764812   -0.00712653   -0.00695626  
1925          0.0136387     0.0129129     0.010662      0.00720955    0.00303735    -0.00130687   -0.0052993    -0.00856108   -0.0108513    -0.0121091    -0.0124464    -0.0121523    -0.011395     -0.0104139    -0.00938568   -0.00843067   -0.00764663   -0.00712925   -0.00696028  
