# Probe 0 (-0.0103 0 0.005)
# Probe 1 (-0.0101 0.0018 0.005)
# Probe 2 (-0.0096 0.0035 0.005)
# Probe 3 (-0.0089 0.0051 0.005)
# Probe 4 (-0.0079 0.0066 0.005)
# Probe 5 (-0.0066 0.0079 0.005)
# Probe 6 (-0.0051 0.0089 0.005)
# Probe 7 (-0.0035 0.0096 0.005)
# Probe 8 (-0.0018 0.0101 0.005)
# Probe 9 (0 0.0103 0.005)
# Probe 10 (0.0018 0.0101 0.005)
# Probe 11 (0.0035 0.0096 0.005)
# Probe 12 (0.0051 0.0089 0.005)
# Probe 13 (0.0066 0.0079 0.005)
# Probe 14 (0.0079 0.0066 0.005)
# Probe 15 (0.0089 0.0051 0.005)
# Probe 16 (0.0096 0.0035 0.005)
# Probe 17 (0.0101 0.0018 0.005)
# Probe 18 (0.0103 0 0.005)
# Time        0             1             2             3             4             5             6             7             8             9             10            11            12            13            14            15            16            17            18           
100           4.09119e-11   5.82965e-07   1.23358e-06   1.85613e-06   2.4812e-06    2.90975e-06   3.33258e-06   3.59018e-06   3.72217e-06   -3.73039e-06  -3.63694e-06  -3.4189e-06   -3.09536e-06  -2.63304e-06  -2.20186e-06  -1.61098e-06  -1.05271e-06  -4.90932e-07  -2.7082e-11  
200           2.02784e-11   5.14696e-07   1.08088e-06   1.61285e-06   2.13423e-06   2.47938e-06   2.80177e-06   2.977e-06     3.03855e-06   -2.99861e-06  -2.87529e-06  -2.64979e-06  -2.35031e-06  -1.95446e-06  -1.60661e-06  -1.15314e-06  -7.43579e-07  -3.44423e-07  -9.92552e-12 
300           1.31978e-11   4.79233e-07   1.00026e-06   1.48007e-06   1.9368e-06    2.2266e-06    2.478e-06     2.59132e-06   2.59717e-06   -2.51752e-06  -2.36805e-06  -2.13283e-06  -1.84704e-06  -1.49534e-06  -1.20414e-06  -8.44501e-07  -5.35712e-07  -2.45719e-07  -5.66806e-12 
400           9.34725e-12   4.60576e-07   9.56752e-07   1.40556e-06   1.82057e-06   2.0724e-06    2.27264e-06   2.33922e-06   2.30161e-06   -2.19018e-06  -2.01876e-06  -1.77358e-06  -1.49547e-06  -1.17387e-06  -9.22332e-07  -6.28683e-07  -3.90508e-07  -1.76704e-07  -3.86846e-12 
500           6.80607e-12   4.50825e-07   9.33159e-07   1.36308e-06   1.75038e-06   1.97538e-06   2.13778e-06   2.16847e-06   2.09675e-06   -1.9598e-06   -1.7701e-06   -1.51553e-06  -1.24157e-06  -9.41084e-07  -7.18149e-07  -4.72354e-07  -2.85344e-07  -1.26682e-07  -2.95528e-12 
600           4.95052e-12   4.458e-07     9.20357e-07   1.33852e-06   1.70701e-06   1.91263e-06   2.04646e-06   2.04918e-06   1.95033e-06   -1.79268e-06  -1.58772e-06  -1.32463e-06  -1.05277e-06  -7.67475e-07  -5.65728e-07  -3.55603e-07  -2.0677e-07   -8.92764e-08  -2.41518e-12 
700           3.53443e-12   4.43165e-07   9.13223e-07   1.32386e-06   1.67933e-06   1.87075e-06   1.98274e-06   1.96342e-06   1.84278e-06   -1.66819e-06  -1.45047e-06  -1.17986e-06  -9.08937e-07  -6.34855e-07  -4.49156e-07  -2.66212e-07  -1.46546e-07  -6.05751e-08  -2.06143e-12 
800           2.45072e-12   4.41613e-07   9.08851e-07   1.31446e-06   1.6607e-06    1.84161e-06   1.93682e-06   1.90009e-06   1.76191e-06   -1.57345e-06  -1.3451e-06   -1.068e-06    -7.97373e-07  -5.31755e-07  -3.58411e-07  -1.96504e-07  -9.94995e-08  -3.81189e-08  -1.81228e-12 
900           1.64207e-12   4.40429e-07   9.05606e-07   1.3076e-06    1.6471e-06    1.82015e-06   1.90245e-06   1.85201e-06   1.69975e-06   -1.49998e-06  -1.26288e-06  -9.80317e-07  -7.09719e-07  -4.50628e-07  -2.86914e-07  -1.41452e-07  -6.22498e-08  -2.02996e-08  -1.6261e-12  
1000          1.06758e-12   4.39248e-07   9.02617e-07   1.30174e-06   1.63611e-06   1.80317e-06   1.87553e-06   1.81434e-06   1.65089e-06   -1.44204e-06  -1.19784e-06  -9.10843e-07  -6.40231e-07  -3.86298e-07  -2.30163e-07  -9.76331e-08  -3.24996e-08  -6.02648e-09  -1.47706e-12 
1100          6.84274e-13   4.37916e-07   8.99482e-07   1.29609e-06   1.62633e-06   1.78873e-06   1.85337e-06   1.78382e-06   1.61157e-06   -1.39555e-06  -1.14575e-06  -8.55308e-07  -5.84804e-07  -3.35066e-07  -1.84952e-07  -6.2622e-08   -8.63189e-09  5.4657e-09    -1.35046e-12 
1200          4.44479e-13   4.364e-07     8.96067e-07   1.29032e-06   1.61703e-06   1.77566e-06   1.83424e-06   1.75819e-06   1.57914e-06   -1.35757e-06  -1.10351e-06  -8.10561e-07  -5.4039e-07   -2.94187e-07  -1.48909e-07  -3.4637e-08   1.05326e-08   1.47308e-08   -1.23948e-12 
1300          3.03123e-13   4.34725e-07   8.92385e-07   1.28434e-06   1.60789e-06   1.76336e-06   1.81709e-06   1.73597e-06   1.55171e-06   -1.32597e-06  -1.0688e-06   -7.74216e-07  -5.04661e-07  -2.61553e-07  -1.20212e-07  -1.23194e-08  2.58868e-08   2.21872e-08   -1.13964e-12 
1400          2.22944e-13   4.32941e-07   8.88513e-07   1.27818e-06   1.59881e-06   1.75154e-06   1.80127e-06   1.71617e-06   1.52796e-06   -1.29919e-06  -1.03988e-06  -7.44435e-07  -4.75796e-07  -2.35506e-07  -9.74274e-08  5.39995e-09   3.8131e-08    2.81613e-08   -1.04941e-12 
1500          1.7685e-13    4.311e-07     8.84542e-07   1.27195e-06   1.58982e-06   1.74009e-06   1.78645e-06   1.69818e-06   1.50699e-06   -1.27607e-06  -1.01544e-06  -7.19793e-07  -4.52361e-07  -2.14718e-07  -7.94001e-08  1.93821e-08   4.78267e-08   3.29139e-08   -9.68217e-13 
1600          1.46943e-13   4.29246e-07   8.80559e-07   1.26575e-06   1.58099e-06   1.72902e-06   1.77246e-06   1.68162e-06   1.48818e-06   -1.25581e-06  -9.94499e-07  -6.99189e-07  -4.33219e-07  -1.98122e-07  -6.51935e-08  3.03296e-08   5.54327e-08   3.66581e-08   -8.95321e-13 
1700          1.2262e-13    4.27415e-07   8.76633e-07   1.25966e-06   1.57239e-06   1.71836e-06   1.75922e-06   1.66626e-06   1.47112e-06   -1.23783e-06  -9.76327e-07  -6.81774e-07  -4.17472e-07  -1.84857e-07  -5.40439e-08  3.88202e-08   6.13274e-08   3.95695e-08   -8.29563e-13 
1800          9.82981e-14   4.25633e-07   8.72816e-07   1.25375e-06   1.56411e-06   1.70816e-06   1.74671e-06   1.65196e-06   1.45554e-06   -1.22172e-06  -9.60385e-07  -6.66899e-07  -4.04414e-07  -1.74232e-07  -4.53296e-08  4.53304e-08   6.58258e-08   4.17946e-08   -7.69889e-13 
1900          7.16378e-14   4.23916e-07   8.69143e-07   1.24808e-06   1.55619e-06   1.69845e-06   1.73492e-06   1.63864e-06   1.44125e-06   -1.20717e-06  -9.46271e-07  -6.54067e-07  -3.93495e-07  -1.65694e-07  -3.85467e-08  5.02529e-08   6.91902e-08   4.34562e-08   -7.15094e-13 
1925          6.44279e-14   4.23499e-07   8.68251e-07   1.24671e-06   1.55427e-06   1.69611e-06   1.73209e-06   1.63546e-06   1.43786e-06   -1.20376e-06  -9.42991e-07  -6.51132e-07  -3.91047e-07  -1.63832e-07  -3.71032e-08  5.12746e-08   6.98806e-08   4.37961e-08   -7.02125e-13 
