# Probe 0 (-0.0103 0 0.005)
# Probe 1 (-0.0101 0.0018 0.005)
# Probe 2 (-0.0096 0.0035 0.005)
# Probe 3 (-0.0089 0.0051 0.005)
# Probe 4 (-0.0079 0.0066 0.005)
# Probe 5 (-0.0066 0.0079 0.005)
# Probe 6 (-0.0051 0.0089 0.005)
# Probe 7 (-0.0035 0.0096 0.005)
# Probe 8 (-0.0018 0.0101 0.005)
# Probe 9 (0 0.0103 0.005)
# Probe 10 (0.0018 0.0101 0.005)
# Probe 11 (0.0035 0.0096 0.005)
# Probe 12 (0.0051 0.0089 0.005)
# Probe 13 (0.0066 0.0079 0.005)
# Probe 14 (0.0079 0.0066 0.005)
# Probe 15 (0.0089 0.0051 0.005)
# Probe 16 (0.0096 0.0035 0.005)
# Probe 17 (0.0101 0.0018 0.005)
# Probe 18 (0.0103 0 0.005)
# Time        0             1             2             3             4             5             6             7             8             9             10            11            12            13            14            15            16            17            18           
100           (0.0189051 0.00143159 0) (0.0233588 0.0239827 0) (0.0367398 0.0467685 5.92381e-21) (0.0570908 0.0640725 -4.42839e-22) (0.0819655 0.0735247 -3.13507e-21) (0.108251 0.0738574 2.72365e-21) (0.132506 0.0650977 5.89892e-22) (0.151632 0.0484309 -6.15945e-21) (0.163177 0.0262364 0) (0.165705 0.00159548 2.10893e-24) (0.16016 -0.0199622 0) (0.145922 -0.0412252 9.01997e-21) (0.125001 -0.0567262 -3.17383e-22) (0.100053 -0.0645588 -1.43123e-20) (0.0741454 -0.0639175 -1.18735e-20) (0.0503175 -0.0552554 3.27392e-22) (0.0313004 -0.0399724 3.55279e-21) (0.0189603 -0.0203293 0) (0.0148312 -0.0012096 0)
200           (0.0133678 0.00130174 0) (0.0171189 0.0217562 0) (0.0286652 0.0422177 5.16427e-21) (0.0463305 0.0575136 -4.21688e-22) (0.0677238 0.0656379 -2.12192e-21) (0.0899362 0.0655779 3.32874e-21) (0.10991 0.0575093 5.49643e-22) (0.124925 0.0427421 -6.09359e-21) (0.132977 0.0235369 0) (0.133079 0.00265213 2.03024e-24) (0.126585 -0.0151637 0) (0.112888 -0.0321387 8.55236e-21) (0.0942716 -0.0439525 -3.22979e-22) (0.0731586 -0.0493964 -1.32399e-20) (0.0521011 -0.0482174 -1.08209e-20) (0.0334074 -0.0410993 3.1693e-22) (0.0189197 -0.029396 3.08912e-21) (0.00983248 -0.0148496 0) (0.00692335 -0.000882117 0)
300           (0.0113328 0.001226 0) (0.0147191 0.0204573 0) (0.0251744 0.0395327 4.91001e-21) (0.0411168 0.0535418 -4.1593e-22) (0.0601864 0.0606996 -1.78297e-21) (0.0795685 0.0602149 3.49794e-21) (0.0964125 0.0524377 5.30876e-22) (0.108287 0.0387979 -6.00818e-21) (0.113548 0.0215365 0) (0.111608 0.0032231 1.98019e-24) (0.10422 -0.0119026 0) (0.0907902 -0.0257076 8.28195e-21) (0.0738527 -0.0347255 -3.1864e-22) (0.0556433 -0.0383238 -1.27455e-20) (0.0382807 -0.0366951 -1.04381e-20) (0.0234749 -0.0307123 3.01621e-22) (0.012396 -0.021639 3.01851e-21) (0.0056676 -0.0108247 0) (0.00356851 -0.000641049 0)
400           (0.010371 0.00118544 0) (0.0135579 0.0197561 0) (0.0233799 0.0380482 4.8178e-21) (0.0382567 0.0512662 -4.14159e-22) (0.0558174 0.0577511 -1.66105e-21) (0.0732778 0.0568812 3.53538e-21) (0.0878986 0.0491709 5.19281e-22) (0.0974458 0.0361727 -5.9277e-21) (0.100561 0.0201462 0) (0.0969859 0.00361757 1.94267e-24) (0.0888246 -0.00956824 0) (0.0754915 -0.0210583 8.09379e-21) (0.0597333 -0.0280208 -3.11798e-22) (0.0436399 -0.0302608 -1.2465e-20) (0.0289867 -0.0283077 -1.02829e-20) (0.0170164 -0.0231694 2.8748e-22) (0.00839829 -0.0160203 3.06165e-21) (0.00333148 -0.0079137 0) (0.00178332 -0.000466745 0)
500           (0.00988235 0.00116444 0) (0.0129555 0.0193882 0) (0.0224018 0.037242 4.78543e-21) (0.0366105 0.0499711 -4.13695e-22) (0.053174 0.0559856 -1.61943e-21) (0.0693036 0.0547866 3.52991e-21) (0.0823177 0.0470301 5.11252e-22) (0.090119 0.0343854 -5.86022e-21) (0.0915725 0.0191641 0) (0.086687 0.00390772 1.91422e-24) (0.0778675 -0.00785011 0) (0.0645345 -0.0176159 7.96437e-21) (0.0496128 -0.0230415 -3.03698e-22) (0.0350783 -0.0242672 -1.23319e-20) (0.0224359 -0.0220771 -1.02807e-20) (0.0125634 -0.0175763 2.7499e-22) (0.00575105 -0.0118622 3.17488e-21) (0.00188591 -0.00576223 0) (0.000729839 -0.00033795 0)
600           (0.00962678 0.00115391 0) (0.0126332 0.0192001 0) (0.0218511 0.0368097 4.79918e-21) (0.0356321 0.0492334 -4.1279e-22) (0.0515228 0.0549174 -1.66395e-21) (0.0667106 0.0534478 3.45255e-21) (0.0785397 0.0455954 5.0423e-22) (0.0850091 0.0331343 -5.77092e-21) (0.0851564 0.0184552 0) (0.0792097 0.00412519 1.8829e-24) (0.0698306 -0.00656103 0) (0.0564446 -0.0150154 7.83358e-21) (0.0421266 -0.0192657 -2.94535e-22) (0.0287625 -0.0197155 -1.22107e-20) (0.0176418 -0.0173453 -1.02875e-20) (0.0093549 -0.0133323 2.63281e-22) (0.00390009 -0.00871017 3.28572e-21) (0.000931138 -0.00413224 0) (6.52376e-05 -0.000240376 0)
700           (0.00948884 0.00114861 0) (0.0124545 0.0191028 0) (0.0215285 0.0365731 4.84364e-21) (0.0350279 0.0488022 -4.10999e-22) (0.0504538 0.0542531 -1.77572e-21) (0.0649617 0.0525686 3.31282e-21) (0.0759019 0.0446079 4.97514e-22) (0.0813407 0.0322361 -5.65658e-21) (0.0804493 0.0179321 0) (0.0736362 0.00428925 1.84727e-24) (0.0637817 -0.00557886 0) (0.0503169 -0.0130177 7.6928e-21) (0.0364436 -0.0163515 -2.84503e-22) (0.0239755 -0.0161945 -1.20804e-20) (0.0140281 -0.0136816 -1.02819e-20) (0.00696341 -0.0100457 2.52194e-22) (0.00255206 -0.00626917 3.38398e-21) (0.000269196 -0.00286972 0) (-0.000375341 -0.000164784 0)
800           (0.00940917 0.00114554 0) (0.0123482 0.0190456 0) (0.0213264 0.0364291 4.89574e-21) (0.0346321 0.0485289 -4.08473e-22) (0.0497274 0.0538144 -1.91214e-21) (0.0637352 0.0519647 3.14784e-21) (0.0740005 0.043904 4.90975e-22) (0.0786352 0.0315739 -5.53195e-21) (0.0769131 0.0175367 0) (0.0693914 0.00441242 1.81038e-24) (0.0591358 -0.00482215 0) (0.045584 -0.0114636 7.55223e-21) (0.0320454 -0.0140725 -2.74064e-22) (0.0202745 -0.0134332 -1.19567e-20) (0.0112455 -0.0108038 -1.02796e-20) (0.00513717 -0.00746102 2.4182e-22) (0.00154129 -0.00434738 3.47779e-21) (-0.000206214 -0.00187482 0) (-0.000678226 -0.000105191 0)
900           (0.00935634 0.00114307 0) (0.0122761 0.0190005 0) (0.0211846 0.0363195 4.94646e-21) (0.0343486 0.0483263 -4.05361e-22) (0.0491995 0.0534923 -2.05525e-21) (0.0628312 0.0515194 2.97339e-21) (0.0725787 0.0433772 4.8444e-22) (0.0765832 0.031069 -5.40278e-21) (0.0741973 0.0172288 0) (0.0660986 0.00450323 1.77306e-24) (0.055509 -0.00423462 0) (0.0418741 -0.0102439 7.4126e-21) (0.0285939 -0.0122741 -2.63546e-22) (0.0173736 -0.0112475 -1.18357e-20) (0.00907148 -0.00852062 -1.02752e-20) (0.00371947 -0.00540608 2.3212e-22) (0.000768121 -0.0028163 3.56446e-21) (-0.000556211 -0.00108084 0) (-0.000891841 -5.75997e-05 0)
1000          (0.00931388 0.0011404 0) (0.0122178 0.0189534 0) (0.0210699 0.0362136 4.99484e-21) (0.034122 0.0481458 -4.01811e-22) (0.0487828 0.0532224 -2.20113e-21) (0.0621236 0.0511594 2.7935e-21) (0.0714689 0.0429574 4.78016e-22) (0.0749785 0.030667 -5.27032e-21) (0.0720644 0.0169802 0) (0.0635006 0.00456777 1.73522e-24) (0.0526387 -0.00377617 0) (0.0389333 -0.00928053 7.2715e-21) (0.0258588 -0.0108466 -2.53168e-22) (0.0150791 -0.00950737 -1.1708e-20) (0.00735735 -0.00669837 -1.0258e-20) (0.00260767 -0.00376128 2.2301e-22) (0.000169268 -0.00158708 3.63871e-21) (-0.000817997 -0.000441815 0) (-0.00104489 -1.92615e-05 0)
1100          (0.00927367 0.00113722 0) (0.0121631 0.0188986 0) (0.020965 0.0360976 5.04067e-21) (0.0339213 0.0479632 -3.97996e-22) (0.0484257 0.052969 -2.34672e-21) (0.0615336 0.0508406 2.61213e-21) (0.070561 0.0425995 4.71709e-22) (0.0736808 0.0303309 -5.13672e-21) (0.0703492 0.016771 0) (0.0614164 0.00461068 1.69722e-24) (0.0503386 -0.00341725 0) (0.0365807 -0.00851642 7.12897e-21) (0.0236764 -0.00970965 -2.43125e-22) (0.0132544 -0.00811841 -1.15704e-20) (0.00599925 -0.00524021 -1.02236e-20) (0.00173126 -0.00244064 2.14446e-22) (-0.000297549 -0.000596298 3.69843e-21) (-0.00101536 7.48824e-05 0) (-0.00115519 1.17738e-05 0)
1200          (0.00923224 0.0011335 0) (0.0121076 0.0188352 0) (0.0208617 0.0359679 5.08399e-21) (0.0337307 0.0477691 -3.9407e-22) (0.0480995 0.0527152 -2.48957e-21) (0.0610134 0.050539 2.43286e-21) (0.0697841 0.0422759 4.65551e-22) (0.0725945 0.0300361 -5.00443e-21) (0.0689349 0.0165875 0) (0.0597148 0.00463574 1.65958e-24) (0.0484725 -0.0031355 0) (0.0346831 -0.00790822 6.98634e-21) (0.021926 -0.00880256 -2.33587e-22) (0.0117988 -0.00700926 -1.14228e-20) (0.0049214 -0.00407356 -1.0171e-20) (0.00103958 -0.00138027 2.06415e-22) (-0.000661937 0.000202742 3.74107e-21) (-0.0011642 0.000493108 0) (-0.00123423 3.69277e-05 0)
1300          (0.00918863 0.00112932 0) (0.0120498 0.0187646 0) (0.020757 0.035826 5.12449e-21) (0.0335434 0.0475626 -3.90159e-22) (0.0477893 0.0524553 -2.62712e-21) (0.0605357 0.0502429 2.25919e-21) (0.0690935 0.041971 4.59563e-22) (0.0716555 0.0297671 -4.87593e-21) (0.0677393 0.0164207 0) (0.0583 0.00464624 1.62296e-24) (0.0469386 -0.00291364 0) (0.0331399 -0.00742235 6.84595e-21) (0.0205158 -0.008078 -2.24681e-22) (0.0106358 -0.00612439 -1.12684e-20) (0.00406638 -0.0031422 -1.0103e-20) (0.000494685 -0.000531028 1.9893e-22) (-0.000945516 0.000845705 3.76838e-21) (-0.00127571 0.000831021 0) (-0.00128994 5.72822e-05 0)
1400          (0.0091431 0.00112484 0) (0.0119901 0.0186892 0) (0.0206508 0.0356755 5.16092e-21) (0.0333574 0.047347 -3.86369e-22) (0.047489 0.0521896 -2.75543e-21) (0.060086 0.0499486 2.09574e-21) (0.0684625 0.0416772 4.53878e-22) (0.0708218 0.0295149 -4.75426e-21) (0.0667046 0.0162649 0) (0.0571019 0.0046451 1.58816e-24) (0.0456604 -0.00273818 0) (0.0318737 -0.00703242 6.71118e-21) (0.0193743 -0.00749844 -2.165e-22) (0.00970563 -0.00541957 -1.11132e-20) (0.0033894 -0.00240134 -1.00255e-20) (6.72664e-05 0.000146086 1.91996e-22) (-0.00116476 0.00136073 3.78585e-21) (-0.00135815 0.00110286 0) (-0.00132801 7.36821e-05 0)
1500          (0.0090964 0.00112021 0) (0.0119293 0.0186112 0) (0.0205441 0.0355206 5.19205e-21) (0.0331732 0.0471266 -3.82775e-22) (0.0471967 0.0519215 -2.8711e-21) (0.0596577 0.0496566 1.94632e-21) (0.0678758 0.0413917 4.4854e-22) (0.0700666 0.029275 -4.64181e-21) (0.0657912 0.0161172 0) (0.0560694 0.00463489 1.55584e-24) (0.0445801 -0.00259859 0) (0.0308245 -0.00671762 6.58503e-21) (0.0184452 -0.00703385 -2.09091e-22) (0.00896073 -0.00485909 -1.09631e-20) (0.00285482 -0.00181468 -9.94478e-21) (-0.000265945 0.000682658 1.8555e-22) (-0.00133254 0.00177052 3.79666e-21) (-0.00141777 0.00132009 0) (-0.00135258 8.68091e-05 0)
1600          (0.00904943 0.00111554 0) (0.0118684 0.0185327 0) (0.0204382 0.0353648 5.21759e-21) (0.0329923 0.0469059 -3.79414e-22) (0.0469132 0.0516548 -2.97297e-21) (0.0592484 0.0493691 1.81232e-21) (0.0673255 0.0411145 4.43589e-22) (0.0693733 0.0290453 -4.53957e-21) (0.0649722 0.015976 0) (0.0551657 0.0046179 1.52631e-24) (0.0436544 -0.0024867 0) (0.0299459 -0.00646155 6.46908e-21) (0.0176843 -0.00666018 -2.02451e-22) (0.00836313 -0.00441392 -1.08219e-20) (0.00243396 -0.0013525 -9.86516e-21) (-0.00052369 0.00110461 1.79735e-22) (-0.00145916 0.00209371 3.80304e-21) (-0.00145939 0.00149208 0) (-0.00136675 9.72205e-05 0)
1700          (0.00900297 0.00111092 0) (0.0118083 0.0184551 0) (0.0203344 0.035211 5.2381e-21) (0.0328162 0.0466886 -3.76294e-22) (0.0466396 0.0513932 -3.06193e-21) (0.0588577 0.0490888 1.69305e-21) (0.0668075 0.0408465 4.39033e-22) (0.0687319 0.0288256 -4.44728e-21) (0.0642297 0.0158409 0) (0.0543647 0.00459611 1.49955e-24) (0.0428512 -0.00239618 0) (0.0292023 -0.00625144 6.36354e-21) (0.0170564 -0.00635821 -1.96535e-22) (0.00788243 -0.00406052 -1.0691e-20) (0.00210363 -0.000990398 -9.78852e-21) (-0.000721164 0.00143338 1.74527e-22) (-0.00155288 0.00234572 3.80619e-21) (-0.00148685 0.00162663 0) (-0.00137287 0.000105377 0)
1800          (0.00895767 0.00110643 0) (0.0117499 0.0183795 0) (0.0202338 0.0350614 5.25461e-21) (0.0326464 0.0464774 -3.73407e-22) (0.0463773 0.0511395 -3.1399e-21) (0.058486 0.0488181 1.58666e-21) (0.0663199 0.0405892 4.3485e-22) (0.0681361 0.028616 -4.36402e-21) (0.0635515 0.0157119 0) (0.0536477 0.00457117 1.47534e-24) (0.0421467 -0.00232218 0) (0.0285664 -0.00607736 6.26782e-21) (0.0165341 -0.00611273 -1.91279e-22) (0.00749433 -0.00377987 -1.05701e-20) (0.00184508 -0.000708362 -9.71537e-21) (-0.000870732 0.00168671 1.69878e-22) (-0.00162046 0.00253944 3.80668e-21) (-0.00150317 0.00173023 0) (-0.00137281 0.000111663 0)
1900          (0.00891398 0.0011021 0) (0.0116936 0.0183068 0) (0.0201373 0.0349174 5.26796e-21) (0.032484 0.0462743 -3.7074e-22) (0.0461274 0.050896 -3.20856e-21) (0.058134 0.0485588 1.49149e-21) (0.0658615 0.0403437 4.31025e-22) (0.067582 0.028417 -4.28884e-21) (0.0629294 0.0155893 0) (0.0530012 0.00454439 1.45347e-24) (0.0415231 -0.00226103 0) (0.0280171 -0.00593167 6.18118e-21) (0.0160959 -0.00591178 -1.86615e-22) (0.00717951 -0.0035567 -1.0459e-20) (0.00164322 -0.000490065 -9.64602e-21) (-0.000982438 0.0018793 1.65738e-22) (-0.00166742 0.00268566 3.80506e-21) (-0.0015108 0.00180836 0) (-0.00136801 0.000116405 0)
1925          (0.00890335 0.00110105 0) (0.0116799 0.0182891 0) (0.0201139 0.0348824 5.27081e-21) (0.0324446 0.046225 -3.70105e-22) (0.0460669 0.0508368 -3.22434e-21) (0.058049 0.0484959 1.46936e-21) (0.0657514 0.0402843 4.30119e-22) (0.0674497 0.0283689 -4.27122e-21) (0.0627819 0.0155596 0) (0.0528494 0.00453753 1.44834e-24) (0.0413782 -0.0022474 0) (0.0278914 -0.00589896 6.16081e-21) (0.0159974 -0.00586735 -1.85533e-22) (0.00711039 -0.0035084 -1.04326e-20) (0.00160015 -0.000443836 -9.62921e-21) (-0.00100544 0.00191943 1.64775e-22) (-0.00167647 0.00271588 3.80435e-21) (-0.00151159 0.00182448 0) (-0.00136622 0.000117383 0)
