# Probe 0 (-0.01 0 0)
# Probe 1 (-0.01 0.0009 0)
# Probe 2 (-0.0098 0.0017 0)
# Probe 3 (-0.0097 0.0026 0)
# Probe 4 (-0.0094 0.0034 0)
# Probe 5 (-0.0091 0.0042 0)
# Probe 6 (-0.0087 0.005 0)
# Probe 7 (-0.0082 0.0057 0)
# Probe 8 (-0.0077 0.0064 0)
# Probe 9 (-0.0071 0.0071 0)
# Probe 10 (-0.0064 0.0077 0)
# Probe 11 (-0.0057 0.0082 0)
# Probe 12 (-0.005 0.0087 0)
# Probe 13 (-0.0042 0.0091 0)
# Probe 14 (-0.0034 0.0094 0)
# Probe 15 (-0.0026 0.0097 0)
# Probe 16 (-0.0017 0.0098 0)
# Probe 17 (-0.0009 0.01 0)
# Probe 18 (0 0.01 0)
# Probe 19 (0.0009 0.01 0)
# Probe 20 (0.0017 0.0098 0)
# Probe 21 (0.0026 0.0097 0)
# Probe 22 (0.0034 0.0094 0)
# Probe 23 (0.0042 0.0091 0)
# Probe 24 (0.005 0.0087 0)
# Probe 25 (0.0057 0.0082 0)
# Probe 26 (0.0064 0.0077 0)
# Probe 27 (0.0071 0.0071 0)
# Probe 28 (0.0077 0.0064 0)
# Probe 29 (0.0082 0.0057 0)
# Probe 30 (0.0087 0.005 0)
# Probe 31 (0.0091 0.0042 0)
# Probe 32 (0.0094 0.0034 0)
# Probe 33 (0.0097 0.0026 0)
# Probe 34 (0.0098 0.0017 0)
# Probe 35 (0.01 0.0009 0)
# Probe 36 (0.01 0 0)
# Time        0             1             2             3             4             5             6             7             8             9             10            11            12            13            14            15            16            17            18            19            20            21            22            23            24            25            26            27            28            29            30            31            32            33            34            35            36           
0.01          0.116091      0.109861      0.113373      0.104584      0.104697      0.0943725     0.0884097     0.0827846     0.0722901     0.0587918     0.0468711     0.0389162     0.0247414     0.0145814     0.00236729    -0.00822506   -0.0227621    -0.0297977    -0.0457441    -0.0486319    -0.0627922    -0.0627721    -0.0763426    -0.0701312    -0.070654     -0.0808879    -0.065107     -0.0576099    -0.0477636    -0.0374416    -0.0153415    0.00310213    0.0301993     0.0488758     0.0838802     0.0873222     0.114229     
0.02          0.119617      0.112632      0.116685      0.106881      0.107298      0.0957042     0.0891426     0.0833739     0.0712593     0.0559982     0.042644      0.0340137     0.0169068     0.00480478    -0.00917192   -0.0232903    -0.0407272    -0.0516529    -0.0720209    -0.07898      -0.0983717    -0.103499     -0.124799     -0.123057     -0.129413     -0.152337     -0.137019     -0.137413     -0.133719     -0.137506     -0.0982207    -0.0701958    -0.0421682    0.0306409     0.108129      0.179781      0.232221     
0.03          0.12258       0.115211      0.119562      0.109257      0.109888      0.0976609     0.0908376     0.085137      0.0721718     0.0560922     0.0421642     0.0333218     0.0147102     0.00164424    -0.0129307    -0.0291955    -0.0476963    -0.0613405    -0.0835318    -0.0938946    -0.115526     -0.125736     -0.150939     -0.155695     -0.168003     -0.199454     -0.192662     -0.206542     -0.218362     -0.247922     -0.215748     -0.203836     -0.228778     -0.128859     -0.120312     0.0494079     0.00796797   
0.04          0.124653      0.117068      0.121596      0.111015      0.111792      0.0992154     0.0922642     0.0866657     0.0732156     0.0567172     0.042544      0.0336754     0.014227      0.000668258   -0.0140436    -0.0316027    -0.0503813    -0.0657839    -0.0885155    -0.101271     -0.12348      -0.137482     -0.163912     -0.174225     -0.190737     -0.225664     -0.228664     -0.254031     -0.280212     -0.330388     -0.320657     -0.338657     -0.431122     -0.379792     -0.491238     -0.324646     -0.41911     
0.05          0.126059      0.118345      0.122982      0.112239      0.113114      0.100332      0.0933141     0.0878051     0.0740664     0.0573424     0.0430658     0.0342301     0.0143045     0.000491426   -0.0141845    -0.0325184    -0.0512543    -0.0677499    -0.0904389    -0.104747     -0.12675      -0.143242     -0.169452     -0.183649     -0.202517     -0.237446     -0.248204     -0.280794     -0.315206     -0.374322     -0.38701      -0.429458     -0.556035     -0.584982     -0.708599     -0.625498     -0.679119    
0.06          0.127009      0.119213      0.123918      0.113075      0.114013      0.101106      0.0940509     0.0886096     0.0746945     0.0578455     0.0435277     0.0347359     0.0145373     0.00059518    -0.0139926    -0.0327808    -0.0513625    -0.0685093    -0.0909337    -0.106181     -0.127674     -0.145634     -0.170988     -0.187514     -0.207316     -0.240426     -0.255991     -0.290782     -0.328047     -0.385972     -0.41253      -0.465246     -0.586475     -0.667758     -0.743004     -0.728505     -0.744094    
0.07          0.127641      0.119815      0.124585      0.113706      0.11471       0.101751      0.0946967     0.0893334     0.0753318     0.0584489     0.0441539     0.0354288     0.0151099     0.00113499    -0.0133181    -0.0323356    -0.0506866    -0.0681825    -0.090209     -0.10598      -0.126808     -0.145548     -0.169738     -0.187527     -0.207374     -0.237776     -0.25596      -0.289251     -0.326369     -0.377742     -0.410821     -0.464153     -0.560217     -0.670352     -0.686632     -0.722139     -0.704796    
0.08          0.127803      0.11994       0.124663      0.113741      0.114707      0.101708      0.0946233     0.089242      0.0751971     0.0582735     0.0439677     0.035258      0.0148806     0.000886874   -0.0134965    -0.0326279    -0.0508411    -0.0685268    -0.0903088    -0.10639      -0.126827     -0.146079     -0.169636     -0.188328     -0.208403     -0.237659     -0.257971     -0.292657     -0.331418     -0.383139     -0.426056     -0.489949     -0.599688     -0.760243     -0.76555      -0.819194     -0.667742    
0.09          0.124614      0.117303      0.12162       0.111408      0.112102      0.0999697     0.0932462     0.087814      0.0748677     0.0590384     0.0454727     0.036851      0.0184251     0.00553028    -0.00845145   -0.0250135    -0.0425563    -0.0571301    -0.0779284    -0.0901997    -0.109941     -0.123735     -0.146455     -0.157754     -0.173157     -0.202127     -0.209258     -0.234201     -0.262385     -0.314479     -0.324524     -0.367426     -0.534858     -0.58257      -0.950748     -0.892248     -0.828412    
0.1           0.119476      0.113155      0.116837      0.107926      0.108217      0.0977032     0.0917101     0.0862978     0.0754505     0.0617611     0.0497498     0.0416971     0.0269397     0.0163421     0.00380089    -0.00794111   -0.023169     -0.0320108    -0.0493128    -0.0548708    -0.0709859    -0.0754897    -0.0928969    -0.0931198    -0.0998543    -0.119707     -0.112937     -0.122164     -0.131537     -0.156891     -0.149022     -0.163032     -0.247332     -0.240189     -0.504299     -0.447631     -0.57267     
0.11          0.116397      0.110102      0.112913      0.104162      0.103662      0.0935719     0.0875384     0.0815234     0.0714973     0.0583826     0.0467205     0.0386489     0.025505      0.0158923     0.0038884     -0.00541425   -0.0194313    -0.0251814    -0.0401755    -0.0419495    -0.0549961    -0.0540056    -0.0658815    -0.0597207    -0.0598549    -0.0668411    -0.0546216    -0.0465911    -0.0362229    -0.0343398    -0.024073     -0.033447     -0.0934146    -0.250723     -0.4669       -0.655783     -0.428235    
0.12          0.119167      0.114843      0.119154      0.112607      0.113988      0.10584       0.101516      0.0978678     0.0892842     0.0786174     0.0692588     0.0631777     0.0515547     0.0434119     0.0337437     0.025113      0.013543      0.00776675    -0.00490174   -0.00745308   -0.0187016    -0.019134     -0.0300726    -0.0257325    -0.0265346    -0.0354931    -0.0226317    -0.0152205    -0.00721803   0.0026955     0.0280561     0.050072      0.0710316     0.0482193     -0.100931     -0.26582      -0.531489    
0.13          0.121906      0.114692      0.115134      0.105632      0.102835      0.092645      0.0858217     0.0779091     0.0687248     0.0558318     0.0441792     0.0355931     0.0248191     0.0165182     0.00530518    -0.000675881  -0.0125674    -0.0147174    -0.0259122    -0.024304     -0.0327644    -0.0282355    -0.0338825    -0.0259183    -0.0229327    -0.0228789    -0.0129376    -0.00772693   0.000194117   0.00164393    -0.000113784  -0.0108648    -0.0572417    -0.0925587    -0.289488     -0.291691     -0.438437    
0.14          0.135799      0.133303      0.139057      0.134573      0.137717      0.131394      0.128662      0.127168      0.119943      0.111494      0.104247      0.0999557     0.0897131     0.0829108     0.0752971     0.0674332     0.0580579     0.0526077     0.0422314     0.0395584     0.0304717     0.0296468     0.021088      0.0243161     0.0238371     0.017954      0.027696      0.036111      0.0430334     0.0527621     0.0715628     0.0857196     0.0952322     0.0342985     -0.122073     -0.258294     -0.36747     
0.15          0.179762      0.171972      0.171461      0.161392      0.157633      0.147105      0.139792      0.131005      0.121835      0.10866       0.0966815     0.087703      0.0773961     0.0692678     0.0579987     0.0527871     0.0411873     0.0398692     0.0293689     0.0317169     0.0241002     0.0293288     0.0247062     0.0330271     0.036506      0.0371319     0.0472254     0.0513467     0.0588935     0.0620037     0.0601181     0.0524936     0.0192713     -0.0151321    -0.145605     -0.20461      -0.302539    
0.16          0.147427      0.145214      0.151193      0.14703       0.150438      0.144401      0.141908      0.14072       0.133702      0.125563      0.118626      0.114588      0.104507      0.09788       0.0905439     0.082769      0.0736645     0.0682772     0.0581646     0.055537      0.0467035     0.0459291     0.0377182     0.0408909     0.0405173     0.0353904     0.0445052     0.0538565     0.0607496     0.0696343     0.0881068     0.0997173     0.104695      0.0292791     -0.116259     -0.270299     -0.320025    
0.17          0.131482      0.123701      0.123159      0.113101      0.109326      0.0988191     0.091518      0.0827421     0.0736139     0.0605102     0.0485682     0.0396062     0.0294396     0.0213886     0.0101793     0.00510364    -0.00638392   -0.0076016    -0.0179534    -0.0155588    -0.0230607    -0.0178317    -0.0224465    -0.01416      -0.010741     -0.0106379    -0.00025005   0.00303043    0.00994799    0.013811      0.0125964     0.00720936    -0.020471     -0.0524703    -0.165184     -0.247287     -0.325301    
0.18          0.12848       0.126191      0.132033      0.127799      0.131058      0.124983      0.122416      0.12107       0.114063      0.105854      0.0988556     0.0947363     0.0846788     0.0780521     0.0706651     0.0630013     0.0538703     0.0486663     0.0385877     0.0362053     0.0274721     0.0270306     0.0191001     0.0225794     0.0224958     0.0181674     0.0271206     0.0374431     0.0453307     0.0536025     0.072203      0.081423      0.0821097     -0.0111886    -0.148691     -0.323179     -0.328424    
0.19          0.13077       0.123201      0.12287       0.113039      0.109511      0.099187      0.0920727     0.0835851     0.0745731     0.0617183     0.0499934     0.0412191     0.0311932     0.0232661     0.0122484     0.00720656    -0.00409243   -0.00536328   -0.0155699    -0.0133086    -0.0207538    -0.0157373    -0.0204757    -0.0124072    -0.00918319   -0.00975958   0.000849914   0.00351778    0.00984949    0.0144363     0.0143163     0.0111378     -0.0118826    -0.0424527    -0.149134     -0.255745     -0.321796    
0.2           0.134031      0.131491      0.136989      0.132499      0.135382      0.129131      0.126338      0.124598      0.117535      0.109106      0.101888      0.0975353     0.0875009     0.0808313     0.0732738     0.0658053     0.0565736     0.0516796     0.0416252     0.039639      0.0310409     0.0311139     0.0235602     0.0275128     0.0278387     0.0244449     0.033325      0.044392      0.0533482     0.0608679     0.0789636     0.0848743     0.0774928     -0.0363698    -0.167517     -0.372387     -0.331826    
0.21          0.134608      0.127419      0.12749       0.118065      0.114998      0.104995      0.0982127     0.0902391     0.0814126     0.0689637     0.0576079     0.0491725     0.039293      0.0315369     0.0208345     0.0157497     0.00471966    0.00327562    -0.00676737   -0.0047846    -0.0121989    -0.00756802   -0.0125128    -0.00481284   -0.00188329   -0.00322464   0.0075305     0.00982629    0.0156457     0.020993      0.0222537     0.0212137     0.00234102    -0.0285627    -0.135433     -0.275618     -0.333621    
0.22          0.134323      0.13138       0.13636       0.131454      0.133769      0.127219      0.124072      0.121737      0.114558      0.105776      0.0982028     0.0934872     0.0834697     0.0767167     0.0688858     0.0616747     0.0522788     0.04779       0.0377488     0.0362714     0.0278341     0.0285535     0.0214483     0.0259879     0.0268049     0.024442      0.0333521     0.0455567     0.0549295     0.0615185     0.0783552     0.0802298     0.0593689     -0.0765899    -0.206346     -0.449889     -0.36279     
0.23          0.132852      0.126169      0.1268        0.117914      0.115478      0.105894      0.0995531     0.0922691     0.0836659     0.0717218     0.0608461     0.0528648     0.0431026     0.035534      0.0252279     0.0200006     0.00927357    0.00752291    -0.00238485   -0.000829972  -0.00827824   -0.00420507   -0.00947102   -0.00228104   0.000248378   -0.00194945   0.00886999    0.011012      0.0163949     0.0224829     0.0253247     0.0263553     0.0112044     -0.022182     -0.134435     -0.315903     -0.374928    
0.24          0.132685      0.129214      0.133543      0.128085      0.129683      0.122728      0.119119      0.116029      0.108678      0.0994266     0.0913831     0.0861947     0.0761797     0.0693026     0.0611054     0.0541905     0.0445651     0.0405459     0.0304888     0.0295994     0.0213177     0.0227761     0.0161325     0.0213467     0.0226969     0.0213004     0.0302846     0.0423519     0.052744      0.0583309     0.0731628     0.0706958     0.0304402     -0.124857     -0.266919     -0.54102      -0.423354    
0.25          0.132197      0.126121      0.12744       0.119198      0.117531      0.108442      0.102628      0.0961736     0.0878196     0.076454      0.0661401     0.0587034     0.0490192     0.0416427     0.0317912     0.0263264     0.0159177     0.0137411     0.00392911    0.00492756    -0.0026219    0.000746985   -0.00494349   0.00161351    0.00364847    0.000536861   0.0113129     0.0134853     0.0184655     0.0252095     0.0297411     0.0326917     0.0207187     -0.0173976    -0.141199     -0.359616     -0.442368    
0.26          0.132564      0.128469      0.132053      0.125938      0.126716      0.119268      0.115117      0.111158      0.103581      0.0937666     0.0851602     0.0794176     0.0693791     0.0623384     0.0537005     0.0470893     0.0371774     0.0336493     0.0235411     0.0232665     0.0151209     0.0173434     0.0111454     0.0170497     0.0189233     0.0184167     0.0275103     0.0395004     0.0502865     0.0547886     0.0669021     0.0603449     -0.00237816   -0.165943     -0.345182     -0.615772     -0.508448    
0.27          0.132423      0.127008      0.1291        0.121556      0.120745      0.112185      0.106945      0.101401      0.0932991     0.0825387     0.0728247     0.0659806     0.056324      0.0491256     0.039747      0.0339615     0.0238537     0.0211586     0.0113833     0.0117365     0.00401253    0.0065857     0.000383377   0.006245      0.00773207    0.00370002    0.0143708     0.0167918     0.0214479     0.0287174     0.03507       0.0398775     0.0305814     -0.0130684    -0.154735     -0.390259     -0.526987    
0.28          0.132607      0.127831      0.130628      0.123793      0.1237        0.115704      0.110965      0.106079      0.0982351     0.0877999     0.0785745     0.0722314     0.0621426     0.0549078     0.0457828     0.0394608     0.0292238     0.0261733     0.0159835     0.0163066     0.00827212    0.0112273     0.00543389    0.0119862     0.0143347     0.0145774     0.0237727     0.0352383     0.0461988     0.0497356     0.0586365     0.0487168     -0.0325668    -0.186612     -0.427305     -0.649005     -0.598782    
0.29          0.132876      0.128134      0.131032      0.124197      0.124272      0.116243      0.111585      0.106975      0.0991088     0.0889398     0.0798235     0.0735806     0.0638974     0.05685       0.0479317     0.041761      0.0319179     0.0286438     0.0188472     0.0185063     0.0105523     0.012288      0.00553117    0.010675      0.0115992     0.00671881    0.0172156     0.020077      0.0245434     0.0322834     0.0405762     0.047194      0.0403401     -0.00729144   -0.169012     -0.395792     -0.601622    
0.3           0.133104      0.127632      0.129644      0.122068      0.121103      0.112535      0.107197      0.10138       0.0932458     0.0821661     0.0723022     0.0653489     0.0551851     0.0477374     0.0381097     0.0320431     0.0214656     0.0188475     0.0085563     0.00941867    0.00147208    0.00507677    -0.000366459  0.00674151    0.00948612    0.0102935     0.0195623     0.029959      0.0408932     0.0436586     0.0491365     0.0369216     -0.052181     -0.178388     -0.486397     -0.621649     -0.660686    
