# Probe 0 (-0.01 0 0)
# Probe 1 (-0.01 0.0009 0)
# Probe 2 (-0.0098 0.0017 0)
# Probe 3 (-0.0097 0.0026 0)
# Probe 4 (-0.0094 0.0034 0)
# Probe 5 (-0.0091 0.0042 0)
# Probe 6 (-0.0087 0.005 0)
# Probe 7 (-0.0082 0.0057 0)
# Probe 8 (-0.0077 0.0064 0)
# Probe 9 (-0.0071 0.0071 0)
# Probe 10 (-0.0064 0.0077 0)
# Probe 11 (-0.0057 0.0082 0)
# Probe 12 (-0.005 0.0087 0)
# Probe 13 (-0.0042 0.0091 0)
# Probe 14 (-0.0034 0.0094 0)
# Probe 15 (-0.0026 0.0097 0)
# Probe 16 (-0.0017 0.0098 0)
# Probe 17 (-0.0009 0.01 0)
# Probe 18 (0 0.01 0)
# Probe 19 (0.0009 0.01 0)
# Probe 20 (0.0017 0.0098 0)
# Probe 21 (0.0026 0.0097 0)
# Probe 22 (0.0034 0.0094 0)
# Probe 23 (0.0042 0.0091 0)
# Probe 24 (0.005 0.0087 0)
# Probe 25 (0.0057 0.0082 0)
# Probe 26 (0.0064 0.0077 0)
# Probe 27 (0.0071 0.0071 0)
# Probe 28 (0.0077 0.0064 0)
# Probe 29 (0.0082 0.0057 0)
# Probe 30 (0.0087 0.005 0)
# Probe 31 (0.0091 0.0042 0)
# Probe 32 (0.0094 0.0034 0)
# Probe 33 (0.0097 0.0026 0)
# Probe 34 (0.0098 0.0017 0)
# Probe 35 (0.01 0.0009 0)
# Probe 36 (0.01 0 0)
# Time        0             1             2             3             4             5             6             7             8             9             10            11            12            13            14            15            16            17            18            19            20            21            22            23            24            25            26            27            28            29            30            31            32            33            34            35            36           
0.01          -1.51276e-14  -3.99446e-09  1.54774e-07   -8.90247e-09  2.8843e-07    -7.46309e-09  -3.77568e-09  4.89189e-07   1.08785e-08   2.42183e-08   -9.27483e-07  7.34178e-07   -8.65424e-07  -8.40262e-07  8.36621e-07   -7.99042e-07  8.73657e-07   -7.80191e-07  -8.90635e-07  7.85771e-07   -8.80959e-07  8.14208e-07   -8.50129e-07  8.63404e-07   8.91223e-07   -7.57797e-07  9.56435e-07   -3.58626e-08  -3.36709e-08  -5.25919e-07  -2.69326e-08  -2.54481e-08  -3.25307e-07  -2.26629e-08  -1.85044e-07  -1.70147e-08  -7.58718e-14 
0.02          -8.43191e-15  -3.4691e-09   1.5546e-07    -7.37831e-09  2.89726e-07   -4.78646e-09  -5.10076e-10  4.91498e-07   1.55011e-08   2.97274e-08   -9.27576e-07  7.38184e-07   -8.66649e-07  -8.42162e-07  8.42329e-07   -8.02816e-07  8.80996e-07   -7.86524e-07  -9.00065e-07  7.96159e-07   -8.92893e-07  8.29707e-07   -8.64926e-07  8.85713e-07   9.17177e-07   -7.79669e-07  9.90879e-07   -4.10463e-08  -4.87381e-08  -5.70615e-07  -5.78071e-08  -6.57033e-08  -4.00107e-07  -8.51078e-08  -2.8193e-07   -7.92376e-08  -5.89971e-12 
0.03          2.08602e-13   -3.19839e-09  1.55797e-07   -6.5859e-09   2.90362e-07   -3.37292e-09  1.22981e-09   4.92621e-07   1.80214e-08   3.28648e-08   -9.27212e-07  7.40204e-07   -8.66802e-07  -8.42634e-07  8.45094e-07   -8.0423e-07   8.84303e-07   -7.89313e-07  -9.04077e-07  8.0128e-07    -8.97742e-07  8.38051e-07   -8.70729e-07  8.98958e-07   9.33388e-07   -7.88194e-07  1.01508e-06   -3.36926e-08  -4.45531e-08  -5.93179e-07  -6.53303e-08  -8.27418e-08  -4.59235e-07  -1.39484e-07  -3.56634e-07  -1.3289e-07   -1.78643e-11 
0.04          3.80153e-13   -3.04485e-09  1.55982e-07   -6.13424e-09  2.90708e-07   -2.55999e-09  2.23565e-09   4.93222e-07   1.94968e-08   3.47441e-08   -9.26823e-07  7.41237e-07   -8.6666e-07   -8.42648e-07  8.46431e-07   -8.04719e-07  8.85806e-07   -7.90521e-07  -9.05706e-07  8.03762e-07   -8.99358e-07  8.42384e-07   -8.72167e-07  9.06297e-07   9.42657e-07   -7.89051e-07  1.02992e-06   -1.9719e-08   -2.79388e-08  -5.94108e-07  -5.07736e-08  -7.12721e-08  -4.7023e-07   -1.4712e-07   -3.08471e-07  -1.14865e-07  1.79582e-10  
0.05          -1.97384e-12  -2.95068e-09  1.56091e-07   -5.86045e-09  2.9091e-07    -2.0658e-09   2.84884e-09   4.93568e-07   2.0403e-08    3.59168e-08   -9.26499e-07  7.41798e-07   -8.66458e-07  -8.42523e-07  8.47094e-07   -8.0483e-07   8.86472e-07   -7.90996e-07  -9.06247e-07  8.04889e-07   -8.99522e-07  8.44461e-07   -8.7165e-07   9.09937e-07   9.47322e-07   -7.86306e-07  1.03761e-06   -4.39712e-09  -7.39249e-09  -5.82102e-07  -2.49411e-08  -4.2138e-08   -4.39205e-07  -1.06861e-07  -2.05294e-07  -6.28923e-08  1.69e-09     
0.06          3.3742e-12    -2.89862e-09  1.56151e-07   -5.69773e-09  2.91025e-07   -1.7663e-09   3.22282e-09   4.93764e-07   2.09619e-08   3.66518e-08   -9.26248e-07  7.42099e-07   -8.66264e-07  -8.42364e-07  8.47408e-07   -8.04781e-07  8.86721e-07   -7.91115e-07  -9.06281e-07  8.05298e-07   -8.99063e-07  8.45267e-07   -8.7036e-07   9.11355e-07   9.49126e-07   -7.82259e-07  1.0405e-06    8.97062e-09   1.18317e-08   -5.65237e-07  2.39476e-09   -8.60955e-09  -3.91604e-07  -4.99715e-08  -1.23649e-07  -2.09679e-08  2.77946e-09  
0.07          1.44952e-11   -2.87252e-09  1.5618e-07    -5.6e-09      2.91089e-07   -1.5788e-09   3.45953e-09   4.93877e-07   2.13215e-08   3.71333e-08   -9.26046e-07  7.4226e-07    -8.66086e-07  -8.42202e-07  8.47541e-07   -8.04667e-07  8.8677e-07    -7.91072e-07  -9.06104e-07  8.0537e-07    -8.98406e-07  8.45473e-07   -8.68911e-07  9.1172e-07    9.49573e-07   -7.78188e-07  1.04109e-06   2.03501e-08   2.80077e-08   -5.48734e-07  2.66294e-08   2.20376e-08   -3.44309e-07  3.27221e-09   -5.86855e-08  2.51807e-08   -2.55069e-08 
0.08          -1.28453e-10  -2.73626e-09  1.56334e-07   -5.43912e-09  2.91251e-07   -1.3834e-09   3.67517e-09   4.94047e-07   2.15906e-08   3.74562e-08   -9.2602e-07   7.42435e-07   -8.66069e-07  -8.42191e-07  8.47697e-07   -8.04678e-07  8.86881e-07   -7.91122e-07  -9.06097e-07  8.05494e-07   -8.98157e-07  8.45699e-07   -8.68287e-07  9.12112e-07   9.50079e-07   -7.7652e-07   1.04197e-06   2.50352e-08   3.37195e-08   -5.44779e-07  3.25831e-08   2.76184e-08   -3.38407e-07  7.41375e-09   -3.1196e-08   4.5204e-08    -8.66385e-08 
0.09          1.16479e-10   -3.12704e-09  1.5589e-07    -6.1919e-09   2.90637e-07   -2.54763e-09  2.30512e-09   4.93174e-07   1.97511e-08   3.52863e-08   -9.26179e-07  7.41093e-07   -8.65861e-07  -8.41773e-07  8.45941e-07   -8.03684e-07  8.84825e-07   -7.89349e-07  -9.03673e-07  8.02447e-07   -8.95367e-07  8.40867e-07   -8.6523e-07   9.04351e-07   9.40379e-07   -7.73746e-07  1.02649e-06   1.21478e-08   8.82566e-09   -5.59761e-07  -1.49062e-08  -4.18349e-08  -4.59568e-07  -1.73854e-07  -3.51218e-07  -2.79235e-07  1.92551e-07  
0.1           1.72259e-10   -3.77288e-09  1.55109e-07   -7.97575e-09  2.89224e-07   -5.64322e-09  -1.46114e-09  4.90773e-07   1.44241e-08   2.8781e-08    -9.26859e-07  7.37051e-07   -8.65502e-07  -8.40807e-07  8.40712e-07   -8.01043e-07  8.78873e-07   -7.84483e-07  -8.97037e-07  7.94186e-07   -8.88437e-07  8.28431e-07   -8.58603e-07  8.86301e-07   9.19205e-07   -7.693e-07    9.97571e-07   -1.57496e-08  -2.43529e-08  -5.67625e-07  -5.18283e-08  -8.08146e-08  -4.88151e-07  -2.11233e-07  -5.36054e-07  -4.1298e-07   3.3435e-07   
0.11          -3.50875e-10  -3.678e-09    1.55252e-07   -8.47476e-09  2.89029e-07   -6.86287e-09  -3.06106e-09  4.89997e-07   1.19098e-08   2.55202e-08   -9.27561e-07  7.35021e-07   -8.65519e-07  -8.40395e-07  8.37546e-07   -7.99388e-07  8.7486e-07    -7.81084e-07  -8.91888e-07  7.88052e-07   -8.81855e-07  8.18951e-07   -8.50283e-07  8.72666e-07   9.03574e-07   -7.55625e-07  9.78357e-07   -8.17061e-09  2.3441e-09    -5.19286e-07  8.06575e-09   3.24588e-09   -3.34556e-07  -6.26325e-08  -2.35437e-08  2.69468e-08   -4.08938e-07 
0.12          7.22293e-10   -4.71628e-09  1.53797e-07   -9.99327e-09  2.87229e-07   -8.87929e-09  -5.31347e-09  4.87681e-07   9.16217e-09   2.26302e-08   -9.26319e-07  7.32187e-07   -8.63969e-07  -8.38705e-07  8.34551e-07   -7.97349e-07  8.718e-07     -7.78605e-07  -8.88806e-07  7.84772e-07   -8.78853e-07  8.14254e-07   -8.47396e-07  8.64929e-07   8.93415e-07   -7.52214e-07  9.59245e-07   -1.52365e-08  -7.20121e-09  -4.98182e-07  1.59744e-08   3.42894e-08   -2.32193e-07  8.33347e-08   -7.59128e-08  3.0472e-07    -2.8512e-07  
0.13          -8.74246e-10  -3.87155e-09  1.55186e-07   -9.53926e-09  2.88469e-07   -8.90242e-09  -5.59082e-09  4.88582e-07   8.23487e-09   2.10179e-08   -9.27791e-07  7.31548e-07   -8.64598e-07  -8.38792e-07  8.32217e-07   -7.95981e-07  8.68223e-07   -7.75487e-07  -8.8362e-07   7.79623e-07   -8.71856e-07  8.07792e-07   -8.38881e-07  8.58986e-07   8.88962e-07   -7.43676e-07  9.62351e-07   -1.13846e-08  -1.04446e-08  -5.34332e-07  -3.16584e-08  -6.02231e-08  -4.70686e-07  -1.94642e-07  -5.56822e-07  -4.10619e-07  5.03629e-07  
0.14          8.47642e-10   -4.9241e-09   1.53262e-07   -1.07793e-08  2.86293e-07   -1.03522e-08  -7.12617e-09  4.86129e-07   6.63399e-09   1.97643e-08   -9.25972e-07  7.29995e-07   -8.63155e-07  -8.37637e-07  8.31884e-07   -7.95589e-07  8.68646e-07   -7.75904e-07  -8.84906e-07  7.80522e-07   -8.73957e-07  8.0797e-07    -8.4122e-07   8.55922e-07   8.83005e-07   -7.42171e-07  9.45861e-07   -8.69518e-09  8.99738e-09   -4.67721e-07  5.19915e-08   8.95554e-08   -1.20884e-07  2.56309e-07   2.45729e-07   4.53953e-07   -5.46764e-07 
0.15          -7.36764e-10  -4.21831e-09  1.54893e-07   -1.00571e-08  2.88062e-07   -9.56897e-09  -6.33423e-09  4.87933e-07   7.27113e-09   1.98888e-08   -9.27347e-07  7.30123e-07   -8.63865e-07  -8.37894e-07  8.30264e-07   -7.9466e-07   8.66023e-07   -7.73717e-07  -8.81191e-07  7.7742e-07    -8.69282e-07  8.05314e-07   -8.36402e-07  8.56319e-07   8.86184e-07   -7.42415e-07  9.59003e-07   -1.5034e-08   -1.79706e-08  -5.39779e-07  -4.29017e-08  -7.20144e-08  -4.70454e-07  -1.92894e-07  -5.27201e-07  -3.76649e-07  5.45052e-07  
0.16          5.95087e-10   -4.7367e-09   1.53451e-07   -1.07236e-08  2.86424e-07   -1.04686e-08  -7.3245e-09   4.86202e-07   6.27814e-09   1.92991e-08   -9.2637e-07   7.30042e-07   -8.63434e-07  -8.37838e-07  8.31733e-07   -7.95565e-07  8.68267e-07   -7.7554e-07   -8.84208e-07  7.79585e-07   -8.7285e-07   8.06347e-07   -8.39604e-07  8.53567e-07   8.80384e-07   -7.39198e-07  9.43105e-07   -6.15513e-09  1.49424e-08   -4.59909e-07  6.25738e-08   1.04059e-07   -8.5712e-08   2.88198e-07   2.9213e-07    4.52988e-07   -5.35304e-07 
0.17          -4.36709e-10  -4.46133e-09  1.54574e-07   -1.02871e-08  2.87716e-07   -9.77487e-09  -6.53372e-09  4.87507e-07   7.06784e-09   1.97168e-08   -9.26873e-07  7.29607e-07   -8.63415e-07  -8.3747e-07   8.29867e-07   -7.94329e-07  8.65769e-07   -7.73555e-07  -8.8115e-07   7.77551e-07   -8.69562e-07  8.05765e-07   -8.37133e-07  8.57015e-07   8.86884e-07   -7.44335e-07  9.59195e-07   -1.82435e-08  -2.32143e-08  -5.4286e-07   -4.77935e-08  -7.50772e-08  -4.6206e-07   -1.8601e-07   -4.92439e-07  -3.62202e-07  5.25047e-07  
0.18          2.68807e-10   -4.5039e-09   1.53778e-07   -1.05277e-08  2.86763e-07   -1.03217e-08  -7.19782e-09  4.86587e-07   6.36994e-09   1.93259e-08   -9.26835e-07  7.3041e-07    -8.63831e-07  -8.38184e-07  8.31894e-07   -7.9575e-07   8.68245e-07   -7.75482e-07  -8.8394e-07   7.79167e-07   -8.72251e-07  8.05577e-07   -8.38594e-07  8.52559e-07   8.79384e-07   -7.37259e-07  9.42635e-07   -3.65331e-09  1.96842e-08   -4.56197e-07  6.86035e-08   1.10191e-07   -6.83376e-08  2.93838e-07   3.05706e-07   4.45082e-07   -5.1677e-07  
0.19          -9.63702e-11  -4.70186e-09  1.54223e-07   -1.05062e-08  2.87341e-07   -9.96573e-09  -6.71447e-09  4.87073e-07   6.90411e-09   1.96167e-08   -9.26397e-07  7.29203e-07   -8.63e-07     -8.37106e-07  8.29673e-07   -7.94122e-07  8.65758e-07   -7.73586e-07  -8.81387e-07  7.77926e-07   -8.70141e-07  8.06455e-07   -8.38128e-07  8.57864e-07   8.87664e-07   -7.46163e-07  9.59228e-07   -2.0574e-08   -2.6673e-08   -5.43287e-07  -4.93137e-08  -7.39708e-08  -4.4988e-07   -1.76136e-07  -4.6613e-07   -3.56002e-07  5.11286e-07  
0.2           -7.73399e-11  -4.26905e-09  1.54132e-07   -1.03162e-08  2.87137e-07   -1.01407e-08  -7.02898e-09  4.87012e-07   6.5149e-09    1.94026e-08   -9.27295e-07  7.30772e-07   -8.64217e-07  -8.38513e-07  8.32022e-07   -7.95908e-07  8.68186e-07   -7.75399e-07  -8.83638e-07  7.78756e-07   -8.71629e-07  8.04892e-07   -8.37604e-07  8.51782e-07   8.7871e-07    -7.35591e-07  9.42762e-07   -1.55389e-09  2.31103e-08   -4.55329e-07  7.03495e-08   1.08394e-07   -6.76515e-08  2.77718e-07   3.03641e-07   4.20668e-07   -5.0805e-07  
0.21          2.5017e-10    -4.93128e-09  1.53866e-07   -1.07186e-08  2.86958e-07   -1.01575e-08  -6.89838e-09  4.86637e-07   6.74022e-09   1.95258e-08   -9.25943e-07  7.28855e-07   -8.62623e-07  -8.36787e-07  8.29569e-07   -7.93981e-07  8.65847e-07   -7.73694e-07  -8.81726e-07  7.78358e-07   -8.70805e-07  8.07137e-07   -8.39149e-07  8.58567e-07   8.88205e-07   -7.47693e-07  9.58788e-07   -2.23179e-08  -2.87161e-08  -5.41432e-07  -4.80812e-08  -6.94005e-08  -4.34063e-07  -1.62815e-07  -4.46198e-07  -3.42809e-07  5.05308e-07  
0.22          -4.18762e-10  -4.04976e-09  1.54484e-07   -1.01106e-08  2.87515e-07   -9.95157e-09  -6.84614e-09  4.87437e-07   6.67993e-09   1.94971e-08   -9.27722e-07  7.31092e-07   -8.64565e-07  -8.38801e-07  8.32092e-07   -7.96022e-07  8.68073e-07   -7.75277e-07  -8.83294e-07  7.78344e-07   -8.70993e-07  8.04281e-07   -8.36663e-07  8.5121e-07    8.78322e-07   -7.34264e-07  9.43394e-07   -6.7713e-11   2.48998e-08   -4.5751e-07   6.7412e-08    9.8311e-08    -8.81346e-08  2.35388e-07   2.82297e-07   3.62692e-07   -5.00314e-07 
0.23          5.8088e-10    -5.13575e-09  1.53523e-07   -1.09124e-08  2.86589e-07   -1.03403e-08  -7.07669e-09  4.86224e-07   6.58163e-09   1.94444e-08   -9.25539e-07  7.2858e-07    -8.62305e-07  -8.36533e-07  8.29555e-07   -7.93912e-07  8.6602e-07    -7.73865e-07  -8.82136e-07  7.78811e-07   -8.71503e-07  8.07754e-07   -8.40125e-07  8.59062e-07   8.88458e-07   -7.48839e-07  9.57889e-07   -2.34267e-08  -2.93204e-08  -5.3751e-07   -4.42314e-08  -6.15122e-08  -4.14498e-07  -1.45272e-07  -4.27884e-07  -3.02482e-07  4.89671e-07  
0.24          -7.33605e-10  -3.86039e-09  1.54811e-07   -9.92464e-09  2.87871e-07   -9.76758e-09  -6.66248e-09  4.87836e-07   6.8524e-09    1.9601e-08    -9.28092e-07  7.31347e-07   -8.64854e-07  -8.39031e-07  8.32096e-07   -7.96081e-07  8.67909e-07   -7.75121e-07  -8.82922e-07  7.7795e-07    -8.70375e-07  8.03774e-07   -8.35821e-07  8.50873e-07   8.78241e-07   -7.3336e-07   9.44498e-07   7.79667e-10   2.48816e-08   -4.6273e-07   5.99229e-08   8.0769e-08    -1.3251e-07   1.64594e-07   2.30524e-07   2.58657e-07   -4.69792e-07 
0.25          8.75313e-10   -5.30282e-09  1.53217e-07   -1.1076e-08   2.86256e-07   -1.05037e-08  -7.23934e-09  4.8586e-07    6.43666e-09   1.93741e-08   -9.25211e-07  7.28392e-07   -8.62065e-07  -8.36357e-07  8.29627e-07   -7.93915e-07  8.66264e-07   -7.74085e-07  -8.82585e-07  7.79251e-07   -8.72184e-07  8.08261e-07   -8.40986e-07  8.59313e-07   8.88402e-07   -7.49524e-07  9.56581e-07   -2.38386e-08  -2.84695e-08  -5.31749e-07  -3.78811e-08  -5.03809e-08  -3.9097e-07   -1.21827e-07  -4.0404e-07   -2.19143e-07  4.37338e-07  
0.26          -1.00336e-09  -3.71213e-09  1.55096e-07   -9.76971e-09  2.88184e-07   -9.60012e-09  -6.4895e-09   4.88184e-07   7.02093e-09   1.97059e-08   -9.28381e-07  7.31521e-07   -8.65067e-07  -8.39187e-07  8.32033e-07   -7.96081e-07  8.677e-07     -7.74937e-07  -8.82542e-07  7.77594e-07   -8.69809e-07  8.03399e-07   -8.35125e-07  8.50791e-07   8.78476e-07   -7.32935e-07  9.46016e-07   8.19605e-10   2.30292e-08   -4.70692e-07  4.85527e-08   5.77115e-08   -1.98412e-07  7.10883e-08   1.36088e-07   1.09606e-07   -3.89822e-07 
0.27          1.11634e-09   -5.42312e-09  1.52965e-07   -1.12006e-08  2.85979e-07   -1.06393e-08  -7.37821e-09  4.85565e-07   6.31155e-09   1.93164e-08   -9.24978e-07  7.283e-07     -8.61916e-07  -8.36268e-07  8.29777e-07   -7.93987e-07  8.66559e-07   -7.74336e-07  -8.83042e-07  7.79646e-07   -8.728e-07    8.08623e-07   -8.41674e-07  8.59302e-07   8.8804e-07    -7.49709e-07  9.54946e-07   -2.35277e-08  -2.62042e-08  -5.24413e-07  -2.91895e-08  -3.60907e-08  -3.63108e-07  -8.95679e-08  -3.62968e-07  -9.21016e-08  3.26059e-07  
0.28          -1.21237e-09  -3.61374e-09  1.55319e-07   -9.6556e-09   2.88435e-07   -9.46054e-09  -6.33931e-09  4.8846e-07    7.17262e-09   1.98022e-08   -9.28572e-07  7.31601e-07   -8.65188e-07  -8.39258e-07  8.31902e-07   -7.96018e-07  8.67454e-07   -7.74731e-07  -8.8217e-07   7.77294e-07   -8.69319e-07  8.03173e-07   -8.34609e-07  8.50966e-07   8.79009e-07   -7.33012e-07  9.47854e-07   1.60538e-10   1.94833e-08   -4.80803e-07  3.44267e-08   3.18462e-08   -2.76528e-07  -2.88969e-08  -4.80528e-09  -6.59628e-08  -2.46504e-07 
0.29          1.29048e-09   -5.49063e-09  1.52781e-07   -1.12806e-08  2.85774e-07   -1.07412e-08  -7.48773e-09  4.85353e-07   6.20999e-09   1.92703e-08   -9.24851e-07  7.28305e-07   -8.61866e-07  -8.36269e-07  8.29992e-07   -7.9412e-07   8.6688e-07    -7.74598e-07  -8.83469e-07  7.79965e-07   -8.73307e-07  8.08813e-07   -8.42139e-07  8.59029e-07   8.87393e-07   -7.49382e-07  9.5308e-07    -2.25074e-08  -2.26231e-08  -5.15805e-07  -1.8389e-08   -1.88293e-08  -3.3055e-07   -4.54737e-08  -2.91949e-07  6.05536e-08   1.53364e-07  
0.3           -1.34913e-09  -3.57065e-09  1.5547e-07    -9.5894e-09   2.8861e-07    -9.35837e-09  -6.22258e-09  4.88645e-07   7.29544e-09   1.98805e-08   -9.28655e-07  7.31579e-07   -8.6521e-07   -8.39239e-07  8.31707e-07   -7.95894e-07  8.67179e-07   -7.74513e-07  -8.81822e-07  7.7706e-07    -8.6893e-07   8.03105e-07   -8.34297e-07  8.51382e-07   8.79804e-07   -7.33585e-07  9.49888e-07   -1.29529e-09  1.45259e-08   -4.92229e-07  1.89118e-08   6.02765e-09   -3.52757e-07  -1.1437e-07   -1.79043e-07  -2.35276e-07  -5.03254e-08 
