# Probe 0 (-0.01 0 0)
# Probe 1 (-0.01 0.0009 0)
# Probe 2 (-0.0098 0.0017 0)
# Probe 3 (-0.0097 0.0026 0)
# Probe 4 (-0.0094 0.0034 0)
# Probe 5 (-0.0091 0.0042 0)
# Probe 6 (-0.0087 0.005 0)
# Probe 7 (-0.0082 0.0057 0)
# Probe 8 (-0.0077 0.0064 0)
# Probe 9 (-0.0071 0.0071 0)
# Probe 10 (-0.0064 0.0077 0)
# Probe 11 (-0.0057 0.0082 0)
# Probe 12 (-0.005 0.0087 0)
# Probe 13 (-0.0042 0.0091 0)
# Probe 14 (-0.0034 0.0094 0)
# Probe 15 (-0.0026 0.0097 0)
# Probe 16 (-0.0017 0.0098 0)
# Probe 17 (-0.0009 0.01 0)
# Probe 18 (0 0.01 0)
# Probe 19 (0.0009 0.01 0)
# Probe 20 (0.0017 0.0098 0)
# Probe 21 (0.0026 0.0097 0)
# Probe 22 (0.0034 0.0094 0)
# Probe 23 (0.0042 0.0091 0)
# Probe 24 (0.005 0.0087 0)
# Probe 25 (0.0057 0.0082 0)
# Probe 26 (0.0064 0.0077 0)
# Probe 27 (0.0071 0.0071 0)
# Probe 28 (0.0077 0.0064 0)
# Probe 29 (0.0082 0.0057 0)
# Probe 30 (0.0087 0.005 0)
# Probe 31 (0.0091 0.0042 0)
# Probe 32 (0.0094 0.0034 0)
# Probe 33 (0.0097 0.0026 0)
# Probe 34 (0.0098 0.0017 0)
# Probe 35 (0.01 0.0009 0)
# Probe 36 (0.01 0 0)
# Time        0             1             2             3             4             5             6             7             8             9             10            11            12            13            14            15            16            17            18            19            20            21            22            23            24            25            26            27            28            29            30            31            32            33            34            35            36           
0.01          -1.50668e-14  -3.99525e-09  1.54773e-07   -8.90476e-09  2.88428e-07   -7.46713e-09  -3.78062e-09  4.89186e-07   1.0872e-08    2.42118e-08   -9.27483e-07  7.34175e-07   -8.65421e-07  -8.40259e-07  8.3661e-07    -7.99036e-07  8.73643e-07   -7.80181e-07  -8.90619e-07  7.85755e-07   -8.8094e-07   8.14185e-07   -8.50106e-07  8.63373e-07   8.91189e-07   -7.57763e-07  9.56393e-07   -3.58459e-08  -3.36378e-08  -5.25859e-07  -2.6882e-08   -2.53894e-08  -3.25223e-07  -2.25886e-08  -1.84949e-07  -1.69397e-08  -6.95529e-14 
0.02          -7.99917e-15  -3.46953e-09  1.55459e-07   -7.37957e-09  2.89725e-07   -4.78869e-09  -5.12814e-10  4.91496e-07   1.54971e-08   2.97226e-08   -9.27576e-07  7.38181e-07   -8.66649e-07  -8.42161e-07  8.42324e-07   -8.02814e-07  8.8099e-07    -7.86519e-07  -9.00058e-07  7.96151e-07   -8.92884e-07  8.29694e-07   -8.64915e-07  8.85693e-07   9.17153e-07   -7.79653e-07  9.90844e-07   -4.10476e-08  -4.87312e-08  -5.70573e-07  -5.77814e-08  -6.56647e-08  -4.00018e-07  -8.50297e-08  -2.818e-07    -7.91534e-08  -5.84246e-12 
0.03          2.09185e-13   -3.19863e-09  1.55797e-07   -6.58661e-09  2.90362e-07   -3.37418e-09  1.22826e-09   4.9262e-07    1.80192e-08   3.2862e-08    -9.27213e-07  7.40202e-07   -8.66802e-07  -8.42633e-07  8.45091e-07   -8.04229e-07  8.843e-07     -7.89311e-07  -9.04074e-07  8.01275e-07   -8.97739e-07  8.38044e-07   -8.70725e-07  8.98946e-07   9.33373e-07   -7.88189e-07  1.01506e-06   -3.37067e-08  -4.45674e-08  -5.93167e-07  -6.53362e-08  -8.27393e-08  -4.5919e-07   -1.39441e-07  -3.56613e-07  -1.32865e-07  -1.73861e-11 
0.04          3.76504e-13   -3.04499e-09  1.55982e-07   -6.13465e-09  2.90707e-07   -2.56074e-09  2.23472e-09   4.93222e-07   1.94955e-08   3.47423e-08   -9.26823e-07  7.41236e-07   -8.6666e-07   -8.42649e-07  8.4643e-07    -8.04719e-07  8.85805e-07   -7.9052e-07   -9.05704e-07  8.0376e-07    -8.99357e-07  8.42381e-07   -8.72166e-07  9.0629e-07    9.42649e-07   -7.89052e-07  1.02991e-06   -1.97376e-08  -2.79629e-08  -5.94117e-07  -5.08006e-08  -7.13e-08     -4.70247e-07  -1.47145e-07  -3.08588e-07  -1.14925e-07  1.81274e-10  
0.05          -1.97348e-12  -2.95076e-09  1.56091e-07   -5.86071e-09  2.9091e-07    -2.06627e-09  2.84826e-09   4.93567e-07   2.04021e-08   3.59157e-08   -9.265e-07    7.41797e-07   -8.66459e-07  -8.42524e-07  8.47094e-07   -8.0483e-07   8.86472e-07   -7.90996e-07  -9.06246e-07  8.04888e-07   -8.99522e-07  8.44459e-07   -8.71651e-07  9.09934e-07   9.47318e-07   -7.8631e-07   1.03761e-06   -4.41516e-09  -7.41686e-09  -5.8212e-07   -2.49738e-08  -4.21764e-08  -4.39254e-07  -1.06922e-07  -2.05407e-07  -6.2947e-08   1.68743e-09  
0.06          3.39871e-12   -2.89869e-09  1.5615e-07    -5.69792e-09  2.91025e-07   -1.76662e-09  3.22243e-09   4.93764e-07   2.09614e-08   3.6651e-08    -9.26249e-07  7.42099e-07   -8.66264e-07  -8.42365e-07  8.47408e-07   -8.04781e-07  8.86721e-07   -7.91114e-07  -9.06281e-07  8.05297e-07   -8.99064e-07  8.45267e-07   -8.70361e-07  9.11354e-07   9.49125e-07   -7.82263e-07  1.04049e-06   8.95934e-09   1.1813e-08    -5.65254e-07  2.36865e-09   -8.64149e-09  -3.9165e-07   -5.00231e-08  -1.237e-07    -2.09782e-08  2.73183e-09  
0.07          1.43273e-11   -2.8724e-09   1.5618e-07    -5.59995e-09  2.91089e-07   -1.57883e-09  3.45947e-09   4.93877e-07   2.13213e-08   3.7133e-08    -9.26046e-07  7.4226e-07    -8.66086e-07  -8.42202e-07  8.47541e-07   -8.04667e-07  8.8677e-07    -7.91073e-07  -9.06105e-07  8.05371e-07   -8.98408e-07  8.45473e-07   -8.68914e-07  9.11721e-07   9.49575e-07   -7.78195e-07  1.04109e-06   2.03356e-08   2.79867e-08   -5.48763e-07  2.65936e-08   2.19889e-08   -3.44392e-07  3.18088e-09   -5.87471e-08  2.51334e-08   -2.55682e-08 
0.08          -1.28246e-10  -2.7364e-09   1.56334e-07   -5.43923e-09  2.9125e-07    -1.38349e-09  3.67508e-09   4.94047e-07   2.15905e-08   3.74561e-08   -9.26021e-07  7.42435e-07   -8.66069e-07  -8.42191e-07  8.47698e-07   -8.04678e-07  8.86882e-07   -7.91123e-07  -9.06098e-07  8.05495e-07   -8.98159e-07  8.45701e-07   -8.68291e-07  9.12114e-07   9.5008e-07    -7.76529e-07  1.04197e-06   2.50118e-08   3.36757e-08   -5.44829e-07  3.24986e-08   2.74962e-08   -3.38638e-07  7.12539e-09   -3.16109e-08  4.46894e-08   -8.59629e-08 
0.09          1.17104e-10   -3.12706e-09  1.5589e-07    -6.1908e-09   2.90637e-07   -2.54525e-09  2.30814e-09   4.93175e-07   1.97556e-08   3.52919e-08   -9.26178e-07  7.41096e-07   -8.65861e-07  -8.41773e-07  8.45946e-07   -8.03686e-07  8.8483e-07    -7.89353e-07  -9.03678e-07  8.02453e-07   -8.95372e-07  8.40875e-07   -8.65233e-07  9.04359e-07   9.40387e-07   -7.7374e-07   1.02649e-06   1.21863e-08   8.87052e-09   -5.59691e-07  -1.48293e-08  -4.17303e-08  -4.59422e-07  -1.73639e-07  -3.51792e-07  -2.79758e-07  1.94597e-07  
0.1           1.72553e-10   -3.77254e-09  1.55109e-07   -7.97445e-09  2.89225e-07   -5.64068e-09  -1.45792e-09  4.90775e-07   1.44291e-08   2.87873e-08   -9.26858e-07  7.37056e-07   -8.65502e-07  -8.40808e-07  8.40719e-07   -8.01047e-07  8.7888e-07    -7.8449e-07   -8.97047e-07  7.94196e-07   -8.88448e-07  8.28444e-07   -8.58616e-07  8.86314e-07   9.19214e-07   -7.69314e-07  9.97563e-07   -1.57602e-08  -2.43997e-08  -5.67637e-07  -5.18977e-08  -8.08879e-08  -4.88159e-07  -2.11183e-07  -5.36552e-07  -4.13196e-07  3.37194e-07  
0.11          -3.49164e-10  -3.67926e-09  1.55251e-07   -8.47522e-09  2.89029e-07   -6.86235e-09  -3.06006e-09  4.89996e-07   1.19118e-08   2.55231e-08   -9.27559e-07  7.35021e-07   -8.65517e-07  -8.40393e-07  8.37546e-07   -7.99387e-07  8.74861e-07   -7.81086e-07  -8.91892e-07  7.88059e-07   -8.81863e-07  8.18968e-07   -8.50298e-07  8.72699e-07   9.03619e-07   -7.55674e-07  9.78437e-07   -8.2414e-09   2.15773e-09   -5.19659e-07  7.56571e-09   2.44274e-09   -3.36514e-07  -6.49656e-08  -3.00402e-08  2.03624e-08   -4.0527e-07  
0.12          7.17466e-10   -4.71184e-09  1.53802e-07   -9.98892e-09  2.87234e-07   -8.87528e-09  -5.3096e-09   4.87687e-07   9.16587e-09   2.26333e-08   -9.26326e-07  7.32194e-07   -8.63976e-07  -8.38712e-07  8.34559e-07   -7.97355e-07  8.71807e-07   -7.78609e-07  -8.8881e-07   7.84771e-07   -8.78851e-07  8.14246e-07   -8.47384e-07  8.64908e-07   8.93388e-07   -7.52166e-07  9.59205e-07   -1.5143e-08   -6.98336e-09  -4.97865e-07  1.64654e-08   3.50561e-08   -2.30667e-07  8.53636e-08   -7.16473e-08  3.08293e-07   -2.91386e-07 
0.13          -8.65712e-10  -3.87861e-09  1.55178e-07   -9.54519e-09  2.88461e-07   -8.90667e-09  -5.5943e-09   4.88573e-07   8.23272e-09   2.10174e-08   -9.2778e-07   7.31538e-07   -8.64587e-07  -8.38783e-07  8.3221e-07    -7.95974e-07  8.68219e-07   -7.75486e-07  -8.83623e-07  7.79632e-07   -8.71867e-07  8.07814e-07   -8.38907e-07  8.59024e-07   8.89007e-07   -7.43748e-07  9.62399e-07   -1.14917e-08  -1.06683e-08  -5.34585e-07  -3.19922e-08  -6.05695e-08  -4.70734e-07  -1.94478e-07  -5.5651e-07   -4.09597e-07  5.05732e-07  
0.14          8.37617e-10   -4.91604e-09  1.53273e-07   -1.07725e-08  2.86303e-07   -1.03471e-08  -7.12173e-09  4.8614e-07    6.63731e-09   1.97658e-08   -9.25987e-07  7.30009e-07   -8.63169e-07  -8.37649e-07  8.31893e-07   -7.95597e-07  8.6865e-07    -7.75906e-07  -8.84903e-07  7.80513e-07   -8.73943e-07  8.07948e-07   -8.41191e-07  8.55887e-07   8.82965e-07   -7.42099e-07  9.45824e-07   -8.58652e-09  9.2265e-09    -4.67453e-07  5.24174e-08   9.01724e-08   -1.19553e-07  2.57775e-07   2.47826e-07   4.54118e-07   -5.4683e-07  
0.15          -7.25769e-10  -4.22684e-09  1.54882e-07   -1.00646e-08  2.8805e-07    -9.57489e-09  -6.33957e-09  4.87919e-07   7.26653e-09   1.9886e-08    -9.2733e-07   7.30108e-07   -8.6385e-07   -8.3788e-07   8.30254e-07   -7.9465e-07   8.66019e-07   -7.73715e-07  -8.81195e-07  7.7743e-07    -8.69298e-07  8.05338e-07   -8.36434e-07  8.56357e-07   8.86225e-07   -7.42491e-07  9.59032e-07   -1.51384e-08  -1.81618e-08  -5.39926e-07  -4.311e-08    -7.2173e-08   -4.70198e-07  -1.92654e-07  -5.2585e-07   -3.75836e-07  5.44432e-07  
0.16          5.83078e-10   -4.72783e-09  1.53464e-07   -1.0716e-08   2.86436e-07   -1.04628e-08  -7.31932e-09  4.86217e-07   6.28224e-09   1.9301e-08    -9.26387e-07  7.30056e-07   -8.63449e-07  -8.37852e-07  8.31741e-07   -7.95573e-07  8.68268e-07   -7.75539e-07  -8.842e-07    7.79571e-07   -8.7283e-07   8.0632e-07    -8.39568e-07  8.53529e-07   8.80346e-07   -7.39122e-07  9.43082e-07   -6.04984e-09  1.51467e-08   -4.59719e-07  6.28793e-08   1.04433e-07   -8.47948e-08  2.88791e-07   2.92986e-07   4.5284e-07    -5.34506e-07 
0.17          -4.24022e-10  -4.47053e-09  1.54561e-07   -1.02954e-08  2.87702e-07   -9.78185e-09  -6.54023e-09  4.87491e-07   7.06203e-09   1.97133e-08   -9.26855e-07  7.29591e-07   -8.63399e-07  -8.37456e-07  8.29859e-07   -7.9432e-07   8.65768e-07   -7.73556e-07  -8.81158e-07  7.77565e-07   -8.69583e-07  8.05792e-07   -8.3717e-07   8.5705e-07    8.86919e-07   -7.44409e-07  9.59206e-07   -1.8339e-08   -2.33681e-08  -5.42918e-07  -4.79002e-08  -7.50977e-08  -4.61658e-07  -1.85686e-07  -4.91275e-07  -3.61879e-07  5.24327e-07  
0.18          2.55878e-10   -4.49489e-09  1.53791e-07   -1.05197e-08  2.86777e-07   -1.0315e-08   -7.19173e-09  4.86603e-07   6.37508e-09   1.93286e-08   -9.26853e-07  7.30424e-07   -8.63846e-07  -8.38197e-07  8.319e-07     -7.95757e-07  8.68244e-07   -7.7548e-07   -8.8393e-07   7.79152e-07   -8.72228e-07  8.05551e-07   -8.38557e-07  8.52527e-07   8.79354e-07   -7.3719e-07   9.42631e-07   -3.56356e-09  1.98414e-08   -4.56111e-07  6.87527e-08   1.10274e-07   -6.7979e-08   2.93653e-07   3.05908e-07   4.44562e-07   -5.16257e-07 
0.19          -8.30539e-11  -4.71095e-09  1.5421e-07    -1.05146e-08  2.87327e-07   -9.9731e-09   -6.72148e-09  4.87056e-07   6.89786e-09   1.96131e-08   -9.26379e-07  7.29188e-07   -8.62985e-07  -8.37092e-07  8.29667e-07   -7.94115e-07  8.6576e-07    -7.73589e-07  -8.81399e-07  7.77942e-07   -8.70165e-07  8.06482e-07   -8.38167e-07  8.57895e-07   8.8769e-07    -7.46228e-07  9.5922e-07    -2.06511e-08  -2.67767e-08  -5.43256e-07  -4.93156e-08  -7.38578e-08  -4.49341e-07  -1.75692e-07  -4.65275e-07  -3.55746e-07  5.10973e-07  
0.2           -9.07892e-11  -4.26017e-09  1.54145e-07   -1.03081e-08  2.87152e-07   -1.01335e-08  -7.02207e-09  4.87028e-07   6.52101e-09   1.94061e-08   -9.27312e-07  7.30786e-07   -8.64231e-07  -8.38525e-07  8.32026e-07   -7.95914e-07  8.68183e-07   -7.75395e-07  -8.83626e-07  7.7874e-07    -8.71605e-07  8.04867e-07   -8.37567e-07  8.51756e-07   8.78689e-07   -7.35533e-07  9.42777e-07   -1.48309e-09  2.32122e-08   -4.55355e-07  7.03242e-08   1.08157e-07   -6.80223e-08  2.76596e-07   3.03227e-07   4.19157e-07   -5.07849e-07 
0.21          2.63557e-10   -4.93985e-09  1.53852e-07   -1.07266e-08  2.86943e-07   -1.01649e-08  -6.90553e-09  4.8662e-07    6.73386e-09   1.95224e-08   -9.25926e-07  7.28843e-07   -8.62609e-07  -8.36776e-07  8.29567e-07   -7.93977e-07  8.65852e-07   -7.737e-07    -8.81741e-07  7.78376e-07   -8.70832e-07  8.07163e-07   -8.39189e-07  8.5859e-07    8.88221e-07   -7.47746e-07  9.58761e-07   -2.23737e-08  -2.8767e-08   -5.41316e-07  -4.79788e-08  -6.91531e-08  -4.33368e-07  -1.62214e-07  -4.45485e-07  -3.41872e-07  5.05039e-07  
0.22          -4.31875e-10  -4.0416e-09   1.54497e-07   -1.01027e-08  2.87529e-07   -9.9441e-09   -6.83881e-09  4.87454e-07   6.6867e-09    1.95011e-08   -9.27738e-07  7.31104e-07   -8.64578e-07  -8.38812e-07  8.32093e-07   -7.96025e-07  8.68068e-07   -7.75272e-07  -8.83279e-07  7.78328e-07   -8.70968e-07  8.04259e-07   -8.36627e-07  8.51192e-07   8.78313e-07   -7.3422e-07   9.43429e-07   -1.50138e-11  2.49344e-08   -4.5766e-07   6.71991e-08   9.77483e-08   -8.94334e-08  2.33119e-07   2.80913e-07   3.59492e-07   -4.99724e-07 
0.23          5.93082e-10   -5.14299e-09  1.53511e-07   -1.09193e-08  2.86575e-07   -1.03471e-08  -7.08334e-09  4.86209e-07   6.57572e-09   1.94414e-08   -9.25525e-07  7.28571e-07   -8.62294e-07  -8.36524e-07  8.29556e-07   -7.9391e-07   8.66029e-07   -7.73873e-07  -8.82152e-07  7.78829e-07   -8.7153e-07   8.07776e-07   -8.40161e-07  8.59077e-07   8.88462e-07   -7.48874e-07  9.57846e-07   -2.34559e-08  -2.93145e-08  -5.3732e-07   -4.40314e-08  -6.11415e-08  -4.13663e-07  -1.4449e-07   -4.27124e-07  -3.00121e-07  4.88508e-07  
0.24          -7.44978e-10  -3.85383e-09  1.54823e-07   -9.918e-09    2.87884e-07   -9.76072e-09  -6.65552e-09  4.87851e-07   6.85907e-09   1.96051e-08   -9.28105e-07  7.31356e-07   -8.64864e-07  -8.39038e-07  8.32095e-07   -7.96082e-07  8.67902e-07   -7.75114e-07  -8.82908e-07  7.77935e-07   -8.70352e-07  8.03757e-07   -8.35791e-07  8.50865e-07   8.78244e-07   -7.33334e-07  9.4455e-07    7.94771e-10   2.48436e-08   -4.62989e-07  5.95498e-08   7.9965e-08    -1.34694e-07  1.6133e-07    2.27732e-07   2.53671e-07   -4.67771e-07 
0.25          8.85645e-10   -5.30835e-09  1.53206e-07   -1.10815e-08  2.86244e-07   -1.05095e-08  -7.24515e-09  4.85847e-07   6.43146e-09   1.93717e-08   -9.25201e-07  7.28387e-07   -8.62057e-07  -8.36352e-07  8.29631e-07   -7.93916e-07  8.66275e-07   -7.74094e-07  -8.82603e-07  7.79267e-07   -8.72209e-07  8.08278e-07   -8.41016e-07  8.59317e-07   8.88394e-07   -7.4954e-07   9.56524e-07   -2.38401e-08  -2.84084e-08  -5.31495e-07  -3.759e-08    -4.98907e-08  -3.89985e-07  -1.20774e-07  -4.02871e-07  -2.15017e-07  4.34252e-07  
0.26          -1.01248e-09  -3.70744e-09  1.55105e-07   -9.76459e-09  2.88194e-07   -9.59426e-09  -6.48332e-09  4.88196e-07   7.02706e-09   1.97098e-08   -9.2839e-07   7.31526e-07   -8.65073e-07  -8.39191e-07  8.32029e-07   -7.96079e-07  8.67691e-07   -7.74929e-07  -8.82528e-07  7.77582e-07   -8.69788e-07  8.03388e-07   -8.35102e-07  8.50793e-07   8.78491e-07   -7.32928e-07  9.46081e-07   8.0631e-10    2.29245e-08   -4.71041e-07  4.80593e-08   5.6764e-08    -2.01229e-07  6.72871e-08   1.31573e-07   1.03264e-07   -3.85563e-07 
0.27          1.12418e-09   -5.42664e-09  1.52957e-07   -1.12045e-08  2.8597e-07    -1.06437e-08  -7.38289e-09  4.85555e-07   6.30729e-09   1.93144e-08   -9.24971e-07  7.28298e-07   -8.61913e-07  -8.36267e-07  8.29784e-07   -7.93991e-07  8.66571e-07   -7.74346e-07  -8.83058e-07  7.79659e-07   -8.72822e-07  8.08634e-07   -8.41695e-07  8.59297e-07   8.88021e-07   -7.49706e-07  9.54879e-07   -2.35019e-08  -2.60923e-08  -5.2411e-07   -2.88192e-08  -3.5493e-08   -3.61969e-07  -8.81376e-08  -3.60903e-07  -8.66545e-08  3.20602e-07  
0.28          -1.21884e-09  -3.61111e-09  1.55326e-07   -9.65223e-09  2.88443e-07   -9.456e-09    -6.33428e-09  4.88468e-07   7.1778e-09    1.98055e-08   -9.28578e-07  7.31602e-07   -8.65191e-07  -8.39259e-07  8.31896e-07   -7.96014e-07  8.67444e-07   -7.74723e-07  -8.82157e-07  7.77284e-07   -8.69303e-07  8.03168e-07   -8.34593e-07  8.50977e-07   8.79034e-07   -7.33025e-07  9.47927e-07   1.23948e-10   1.93214e-08   -4.81212e-07  3.38639e-08   3.08649e-08   -2.79499e-07  -3.24702e-08  -1.08552e-08  -7.26234e-08  -2.39984e-07 
0.29          1.2955e-09    -5.49206e-09  1.52775e-07   -1.12827e-08  2.85767e-07   -1.07443e-08  -7.49116e-09  4.85347e-07   6.20674e-09   1.92688e-08   -9.24848e-07  7.28307e-07   -8.61866e-07  -8.36271e-07  8.30001e-07   -7.94126e-07  8.66892e-07   -7.74607e-07  -8.83484e-07  7.79976e-07   -8.73323e-07  8.08816e-07   -8.42151e-07  8.59014e-07   8.87364e-07   -7.4936e-07   9.53008e-07   -2.24568e-08  -2.24675e-08  -5.15467e-07  -1.79536e-08  -1.81389e-08  -3.29255e-07  -4.35958e-08  -2.88654e-07  6.63214e-08   1.46037e-07  
0.3           -1.35268e-09  -3.57015e-09  1.55474e-07   -9.58794e-09  2.88615e-07   -9.35542e-09  -6.21904e-09  4.88649e-07   7.29927e-09   1.98829e-08   -9.28655e-07  7.31577e-07   -8.65209e-07  -8.39236e-07  8.31699e-07   -7.95888e-07  8.67169e-07   -7.74505e-07  -8.8181e-07   7.77053e-07   -8.68918e-07  8.03105e-07   -8.3429e-07   8.51401e-07   8.79837e-07   -7.33615e-07  9.49965e-07   -1.36154e-09  1.43209e-08   -4.92663e-07  1.83319e-08   5.11051e-09   -3.55339e-07  -1.17014e-07  -1.85719e-07  -2.4091e-07   -4.24767e-08 
