# Probe 0 (-0.01 0 0)
# Probe 1 (-0.01 0.0009 0)
# Probe 2 (-0.0098 0.0017 0)
# Probe 3 (-0.0097 0.0026 0)
# Probe 4 (-0.0094 0.0034 0)
# Probe 5 (-0.0091 0.0042 0)
# Probe 6 (-0.0087 0.005 0)
# Probe 7 (-0.0082 0.0057 0)
# Probe 8 (-0.0077 0.0064 0)
# Probe 9 (-0.0071 0.0071 0)
# Probe 10 (-0.0064 0.0077 0)
# Probe 11 (-0.0057 0.0082 0)
# Probe 12 (-0.005 0.0087 0)
# Probe 13 (-0.0042 0.0091 0)
# Probe 14 (-0.0034 0.0094 0)
# Probe 15 (-0.0026 0.0097 0)
# Probe 16 (-0.0017 0.0098 0)
# Probe 17 (-0.0009 0.01 0)
# Probe 18 (0 0.01 0)
# Probe 19 (0.0009 0.01 0)
# Probe 20 (0.0017 0.0098 0)
# Probe 21 (0.0026 0.0097 0)
# Probe 22 (0.0034 0.0094 0)
# Probe 23 (0.0042 0.0091 0)
# Probe 24 (0.005 0.0087 0)
# Probe 25 (0.0057 0.0082 0)
# Probe 26 (0.0064 0.0077 0)
# Probe 27 (0.0071 0.0071 0)
# Probe 28 (0.0077 0.0064 0)
# Probe 29 (0.0082 0.0057 0)
# Probe 30 (0.0087 0.005 0)
# Probe 31 (0.0091 0.0042 0)
# Probe 32 (0.0094 0.0034 0)
# Probe 33 (0.0097 0.0026 0)
# Probe 34 (0.0098 0.0017 0)
# Probe 35 (0.01 0.0009 0)
# Probe 36 (0.01 0 0)
# Time        0             1             2             3             4             5             6             7             8             9             10            11            12            13            14            15            16            17            18            19            20            21            22            23            24            25            26            27            28            29            30            31            32            33            34            35            36           
0.01          (1.47471 0.000693911 0) (1.47863 0.00559959 1.23771e-21) (1.47606 0.0116853 1.81502e-20) (1.48115 0.0164453 -7.20765e-21) (1.48043 0.0232393 3.76473e-20) (1.48616 0.0262279 0) (1.48917 0.030058 -8.12537e-21) (1.49181 0.0367418 5.22782e-20) (1.49753 0.0371787 6.87281e-21) (1.50477 0.0395193 0) (1.51168 0.0415813 -4.25219e-21) (1.51719 0.0477378 2.30855e-20) (1.52367 0.0427063 1.95803e-21) (1.52924 0.0423209 0) (1.53772 0.0460111 2.60826e-22) (1.5419 0.0379998 -5.65739e-22) (1.55166 0.0380922 -3.27926e-21) (1.55367 0.0286936 3.29759e-22) (1.56399 0.0254928 7.89837e-22) (1.56329 0.0160766 -5.07701e-22) (1.57222 0.0109557 9.74688e-21) (1.56938 0.000262005 4.15086e-21) (1.57686 -0.00902215 2.00614e-20) (1.57015 -0.0188257 0) (1.56835 -0.0281013 5.80446e-21) (1.57132 -0.0432179 4.9715e-20) (1.5589 -0.0497414 -6.05008e-21) (1.54791 -0.0592113 0) (1.53475 -0.0735693 4.84803e-21) (1.52603 -0.0910564 2.19966e-20) (1.50324 -0.085277 -9.14646e-22) (1.48554 -0.0865918 0) (1.46025 -0.0996766 -1.17159e-20) (1.4406 -0.0758425 3.49803e-21) (1.40818 -0.0761936 -1.30092e-20) (1.41313 -0.0453652 -9.98087e-22) (1.28128 -0.0101513 -2.31848e-21)
0.02          (1.47042 0.000802845 0) (1.47494 0.00650836 1.34643e-21) (1.47185 0.013547 1.98027e-20) (1.47763 0.0191979 -7.82984e-21) (1.47652 0.0271257 4.08995e-20) (1.48304 0.0308994 0) (1.48632 0.0356177 -8.67752e-21) (1.48888 0.0437334 5.57801e-20) (1.49561 0.0448025 7.20484e-21) (1.5039 0.0481281 0) (1.51184 0.0513812 -4.14741e-21) (1.51787 0.0590699 2.10876e-20) (1.52626 0.0537779 1.29862e-21) (1.53319 0.0538984 0) (1.5432 0.0599714 -3.11014e-21) (1.54974 0.0515789 -1.60332e-21) (1.56201 0.0553611 -6.31015e-21) (1.56676 0.0453607 5.99742e-22) (1.58096 0.0459138 1.31076e-21) (1.58334 0.0348413 -8.71351e-22) (1.59685 0.0326894 1.61381e-20) (1.59827 0.0192464 7.13333e-21) (1.6123 0.0118779 3.45477e-20) (1.60963 -0.00261476 0) (1.613 -0.0145212 1.11289e-20) (1.62654 -0.031535 9.79659e-20) (1.61566 -0.0465672 -1.32301e-20) (1.61035 -0.06712 0) (1.60565 -0.0974331 1.41926e-20) (1.60954 -0.127141 8.87536e-20) (1.57433 -0.143571 -8.14544e-21) (1.55089 -0.164042 0) (1.52774 -0.212431 1.44399e-20) (1.46954 -0.199444 1.98875e-21) (1.41072 -0.248361 -1.64221e-20) (1.19085 -0.160268 -2.22875e-21) (0.519557 -0.0278167 -5.06187e-21)
0.03          (1.46814 0.000857849 0) (1.47296 0.0069758 1.39614e-21) (1.46959 0.0144963 2.05642e-20) (1.47569 0.0206257 -8.11974e-21) (1.47433 0.0291295 4.24497e-20) (1.48122 0.0333593 0) (1.48459 0.0385707 -8.95361e-21) (1.48699 0.0474473 5.77127e-20) (1.49421 0.0489628 7.41147e-21) (1.50294 0.0529453 0) (1.51127 0.0571322 -4.1798e-21) (1.51737 0.0660159 2.08403e-20) (1.52678 0.06111 1.0709e-21) (1.53435 0.062014 0) (1.54478 0.0697917 -4.29502e-21) (1.55282 0.0616467 -2.01314e-21) (1.5659 0.0675798 -7.49914e-21) (1.57261 0.0576448 7.2085e-22) (1.58822 0.0608631 1.53959e-21) (1.59312 0.0495858 -1.04758e-21) (1.60834 0.0502144 1.92022e-20) (1.61359 0.0364453 8.70283e-21) (1.63054 0.0322532 4.22422e-20) (1.63267 0.0164685 0) (1.64042 0.00498878 1.45709e-20) (1.66054 -0.00874325 1.29171e-19) (1.65567 -0.0280013 -1.85592e-20) (1.65959 -0.0540054 0) (1.66915 -0.0905586 2.31683e-20) (1.69 -0.118619 1.6415e-19) (1.66131 -0.160837 -1.93497e-20) (1.64876 -0.200332 0) (1.66096 -0.270174 8.66886e-20) (1.58991 -0.312899 -1.06159e-20) (1.35881 -0.38258 2.20334e-20) (0.765321 -0.253766 -7.18381e-22) (-0.206761 -0.0361233 -1.21008e-22)
0.04          (1.46681 0.000888622 0) (1.4718 0.00724056 1.43149e-21) (1.46826 0.0150299 2.11011e-20) (1.47453 0.021438 -8.3283e-21) (1.47302 0.0302629 4.35668e-20) (1.48009 0.0347711 0) (1.4835 0.0402748 -9.16932e-21) (1.48576 0.0495845 5.92543e-20) (1.49323 0.0513986 7.59721e-21) (1.50217 0.0557964 0) (1.51066 0.0605884 -4.2648e-21) (1.51669 0.0701852 2.12225e-20) (1.52667 0.0656497 1.00647e-21) (1.53455 0.0671172 0) (1.54504 0.0759782 -4.69191e-21) (1.55397 0.0682473 -2.18401e-21) (1.56724 0.0756381 -7.98976e-21) (1.57518 0.0661419 7.79748e-22) (1.59119 0.0713248 1.64558e-21) (1.59781 0.0605133 -1.13828e-21) (1.61343 0.0633542 2.07037e-20) (1.6214 0.0503989 9.53849e-21) (1.63925 0.0492051 4.62367e-20) (1.6452 0.0340578 0) (1.65583 0.0243857 1.66667e-20) (1.67881 0.0154532 1.46973e-19) (1.68017 -0.00429083 -2.19152e-20) (1.69221 -0.0303867 0) (1.714 -0.0641101 2.96805e-20) (1.74641 -0.0818762 2.22019e-19) (1.73568 -0.137512 -3.02092e-20) (1.74289 -0.182939 0) (1.79821 -0.24012 1.66297e-19) (1.73725 -0.333234 -2.94939e-20) (1.14856 -0.320602 8.50182e-20) (0.317247 -0.212862 3.9395e-21) (-0.685995 -0.0244603 9.44394e-21)
0.05          (1.466 0.000911233 0) (1.47108 0.00740334 1.45149e-21) (1.46745 0.0153518 2.14055e-20) (1.47382 0.0219301 -8.44733e-21) (1.4722 0.0309448 4.4211e-20) (1.47938 0.0356282 0) (1.48279 0.041312 -9.29712e-21) (1.48496 0.0508815 6.02014e-20) (1.49257 0.0528945 7.71597e-21) (1.50161 0.0575602 0) (1.51015 0.062748 -4.33478e-21) (1.5161 0.0727832 2.16377e-20) (1.52641 0.0685435 9.97484e-22) (1.53444 0.0704039 0) (1.54485 0.0799548 -4.76808e-21) (1.55432 0.0726166 -2.24436e-21) (1.56752 0.0809693 -8.14951e-21) (1.57623 0.0719612 8.05526e-22) (1.59218 0.0785002 1.68635e-21) (1.59991 0.0683209 -1.17998e-21) (1.61536 0.0727351 2.13145e-20) (1.62505 0.0609057 9.92315e-21) (1.64277 0.0620194 4.79417e-20) (1.65125 0.0482437 0) (1.6634 0.0406333 1.77638e-20) (1.68677 0.0360445 1.54921e-19) (1.69277 0.0178673 -2.35963e-20) (1.71009 -0.005329 0) (1.73884 -0.0315619 3.32295e-20) (1.77489 -0.0377783 2.53156e-19) (1.78172 -0.092408 -3.76627e-20) (1.80505 -0.130697 0) (1.87908 -0.15677 2.15532e-19) (1.79497 -0.253371 -4.39974e-20) (0.89708 -0.178073 1.2421e-19) (0.0211004 -0.112764 7.82089e-21) (-0.881841 -0.0129729 1.52532e-20)
0.06          (1.46549 0.000913146 0) (1.47064 0.00749172 1.46746e-21) (1.46694 0.0155368 2.16461e-20) (1.47336 0.0222214 -8.54217e-21) (1.47167 0.0313512 4.47196e-20) (1.47892 0.0361463 0) (1.48233 0.0419433 -9.40176e-21) (1.48442 0.0516718 6.09596e-20) (1.49211 0.0538174 7.81453e-21) (1.5012 0.058657 0) (1.50975 0.0641042 -4.39821e-21) (1.51562 0.0744114 2.20429e-20) (1.52612 0.0703935 1.0101e-21) (1.53421 0.0725232 0) (1.54452 0.0825106 -4.74088e-21) (1.5543 0.0754959 -2.26371e-21) (1.56736 0.0844694 -8.19253e-21) (1.57652 0.0758961 8.17508e-22) (1.59226 0.0833299 1.70147e-21) (1.60064 0.0737587 -1.19984e-21) (1.6157 0.0792198 2.15432e-20) (1.62639 0.0684798 1.00925e-20) (1.64352 0.071193 4.85631e-20) (1.65348 0.0589118 0) (1.66618 0.0531249 1.82803e-20) (1.68858 0.0517835 1.57395e-19) (1.69737 0.0359728 -2.42162e-20) (1.71721 0.0167479 0) (1.74786 -0.00112597 3.44239e-20) (1.78164 0.00137616 2.62408e-19) (1.79966 -0.0433973 -4.11422e-20) (1.83023 -0.0685874 0) (1.89717 -0.0663959 2.28266e-19) (1.7559 -0.139051 -4.9457e-20) (0.71531 -0.0683866 1.32184e-19) (-0.135334 -0.0360139 9.1979e-21) (-0.905698 -0.00597356 1.67221e-20)
0.07          (1.46516 0.000900793 0) (1.47035 0.00753383 1.47611e-21) (1.4666 0.0156415 2.17817e-20) (1.47306 0.0223951 -8.59766e-21) (1.47132 0.0315996 4.50286e-20) (1.4786 0.0364695 0) (1.482 0.0423417 -9.47243e-21) (1.48404 0.0521742 6.15006e-20) (1.49178 0.054411 7.89144e-21) (1.50088 0.0593682 0) (1.50943 0.064996 -4.46366e-21) (1.51524 0.0754773 2.25234e-20) (1.52584 0.0716295 1.05646e-21) (1.53396 0.0739492 0) (1.54416 0.0842207 -4.55372e-21) (1.55413 0.0774676 -2.22998e-21) (1.56703 0.0868538 -8.08698e-21) (1.57647 0.0786455 8.14506e-22) (1.59195 0.0866875 1.68945e-21) (1.60074 0.0776432 -1.19828e-21) (1.61538 0.0838217 2.14139e-20) (1.62665 0.0740219 1.00725e-20) (1.64308 0.0778658 4.82734e-20) (1.65391 0.066932 0) (1.66671 0.062641 1.83406e-20) (1.68774 0.0637025 1.55855e-19) (1.69817 0.0502551 -2.40741e-20) (1.71847 0.0351041 0) (1.74944 0.0244725 3.40122e-20) (1.77875 0.033193 2.57208e-19) (1.8038 0.000447712 -4.14661e-20) (1.83686 -0.0111325 0) (1.88692 0.0136215 2.18146e-19) (1.68257 -0.0330534 -4.8946e-20) (0.601384 0.0250506 1.23384e-19) (-0.194343 0.0540609 9.11071e-21) (-0.838867 0.0491722 1.57905e-20)
0.08          (1.46507 0.0011539 0) (1.47027 0.00780226 1.47946e-21) (1.46652 0.0159287 2.18193e-20) (1.473 0.0227015 -8.61051e-21) (1.47125 0.0319278 4.50795e-20) (1.47855 0.0368203 0) (1.48195 0.0427163 -9.47597e-21) (1.48397 0.0525826 6.15083e-20) (1.49173 0.0548534 7.8872e-21) (1.50084 0.0598601 0) (1.5094 0.0655585 -4.45213e-21) (1.51517 0.0761187 2.2433e-20) (1.52583 0.0723503 1.03259e-21) (1.53396 0.0747645 0) (1.54411 0.0851842 -4.61313e-21) (1.55418 0.0785682 -2.2502e-21) (1.567 0.0881805 -8.12205e-21) (1.57659 0.0801675 8.19459e-22) (1.59194 0.0885501 1.69298e-21) (1.60096 0.0797823 -1.20421e-21) (1.61539 0.0863607 2.14389e-20) (1.627 0.0770324 1.01064e-20) (1.64316 0.0814812 4.83134e-20) (1.65449 0.0711439 0) (1.66745 0.067514 1.84746e-20) (1.68818 0.0697024 1.55952e-19) (1.69957 0.0569221 -2.4201e-20) (1.72078 0.0426724 0) (1.75345 0.0336223 3.44166e-20) (1.78428 0.0452713 2.61479e-19) (1.81496 0.0106338 -4.33836e-20) (1.8552 -0.00162386 0) (1.91668 0.0342922 2.34111e-19) (1.70924 -0.0243742 -5.51278e-20) (0.659017 0.0855219 1.37998e-19) (0.00137975 0.0952089 1.02718e-20) (-0.661693 0.155465 1.52852e-20)
0.09          (1.4669 0.000686315 0) (1.47189 0.00707598 1.43201e-21) (1.46831 0.014856 2.10737e-20) (1.47454 0.0213221 -8.33791e-21) (1.47292 0.0301678 4.3604e-20) (1.47993 0.034778 0) (1.48323 0.0403755 -9.25908e-21) (1.48528 0.0498117 5.99093e-20) (1.49269 0.051828 7.75293e-21) (1.50141 0.0565285 0) (1.50965 0.0617762 -4.51276e-21) (1.51536 0.0717053 2.33476e-20) (1.5253 0.0678479 1.40334e-21) (1.53302 0.0699157 0) (1.54292 0.0794623 -3.03571e-21) (1.55206 0.0728603 -1.72678e-21) (1.56445 0.0813745 -6.70957e-21) (1.5729 0.0734445 6.7784e-22) (1.58757 0.0804374 1.44836e-21) (1.59511 0.0717808 -1.01135e-21) (1.60885 0.0768006 1.84151e-20) (1.61812 0.0673845 8.54657e-21) (1.63318 0.0695808 4.12825e-20) (1.64103 0.0590977 0) (1.65114 0.0539001 1.51271e-20) (1.66959 0.0509204 1.31561e-19) (1.67396 0.0373736 -1.9864e-20) (1.68592 0.019747 0) (1.70443 -0.00468515 2.76024e-20) (1.73481 -0.017436 2.12588e-19) (1.72559 -0.0746924 -3.09037e-20) (1.73468 -0.131286 0) (1.82965 -0.203601 2.0939e-19) (1.72967 -0.395086 -4.50546e-20) (1.1815 -0.400575 1.59669e-19) (0.471261 -0.561527 1.07564e-20) (-0.191143 -0.342541 1.91138e-20)
0.1           (1.47214 0.000466091 0) (1.47643 0.00594948 1.32533e-21) (1.47343 0.0126754 1.9441e-20) (1.47889 0.0181016 -7.73367e-21) (1.47775 0.0257328 4.04088e-20) (1.48392 0.0293825 0) (1.48698 0.0339724 -8.76261e-21) (1.48926 0.0419122 5.65413e-20) (1.49563 0.0430467 7.46763e-21) (1.50332 0.0465138 0) (1.51071 0.0501066 -4.66927e-21) (1.5163 0.0578978 2.57014e-20) (1.52418 0.0534866 2.20013e-21) (1.53068 0.0542671 0) (1.53988 0.0609573 6.30632e-22) (1.54633 0.054082 -5.6113e-22) (1.55753 0.0591376 -3.44558e-21) (1.56273 0.0511265 3.68579e-22) (1.57561 0.0539924 8.85293e-22) (1.57928 0.0453505 -5.91694e-22) (1.59137 0.0462702 1.14531e-20) (1.5953 0.0363579 5.11485e-21) (1.60813 0.033891 2.5186e-20) (1.60973 0.0230996 0) (1.61545 0.0155175 8.34397e-21) (1.6301 0.0064604 7.53324e-20) (1.62668 -0.00697674 -1.06584e-20) (1.62975 -0.026167 0) (1.63837 -0.057407 1.35377e-20) (1.66296 -0.0820109 1.01668e-19) (1.63753 -0.13813 -1.29759e-20) (1.63198 -0.200022 0) (1.7008 -0.300345 9.38145e-20) (1.59371 -0.465317 -1.86175e-20) (1.62811 -0.6797 7.77755e-20) (1.2529 -0.843395 5.10397e-21) (0.751633 -0.614594 1.21998e-20)
0.11          (1.47456 0.00132355 0) (1.47865 0.00621873 1.2454e-21) (1.47611 0.0125151 1.81328e-20) (1.48131 0.0172608 -7.19717e-21) (1.48061 0.0243089 3.74043e-20) (1.48638 0.0273053 0) (1.48939 0.0312963 -8.09047e-21) (1.49198 0.0383578 5.16617e-20) (1.49772 0.0388887 6.80482e-21) (1.50491 0.0415982 0) (1.51183 0.0439559 -4.22996e-21) (1.5173 0.0502247 2.30308e-20) (1.52391 0.0453448 2.05311e-21) (1.52957 0.0451724 0) (1.53807 0.049764 7.05233e-22) (1.54271 0.0427814 -3.96582e-22) (1.55259 0.0454126 -2.79555e-21) (1.55561 0.0377534 2.8034e-22) (1.56629 0.0380512 6.95802e-22) (1.56751 0.0304017 -4.39059e-22) (1.57695 0.029198 8.55701e-21) (1.57773 0.0210736 3.59367e-21) (1.58653 0.0175452 1.73567e-20) (1.58565 0.0102256 0) (1.58854 0.00524644 4.85147e-21) (1.59631 0.000526975 4.12864e-20) (1.59521 -0.00532779 -4.977e-21) (1.60115 -0.0115649 0) (1.61573 -0.0163893 3.84118e-21) (1.63074 -0.0054117 2.08191e-20) (1.66921 -0.0284765 -2.45688e-21) (1.72349 -0.0430653 0) (1.84958 0.0255191 3.60893e-20) (1.9805 -0.176945 -1.73141e-20) (1.42774 0.259175 7.31357e-20) (1.19412 0.072168 7.36334e-21) (0.691744 0.713852 8.9027e-21)
0.12          (1.47689 -0.000619855 0) (1.48037 0.00421936 1.24254e-21) (1.47772 0.00969223 1.83858e-20) (1.48232 0.0144005 -7.44417e-21) (1.48135 0.0206456 3.93576e-20) (1.48666 0.0236855 0) (1.48934 0.027369 -8.96909e-21) (1.49145 0.0337602 5.92828e-20) (1.49692 0.0343716 8.18989e-21) (1.50347 0.0367225 0) (1.5098 0.0391139 -5.94774e-21) (1.51491 0.0449307 3.67861e-20) (1.52102 0.0404816 4.1242e-21) (1.52633 0.0403138 0) (1.53438 0.0445039 8.42435e-21) (1.53862 0.0378539 1.51607e-21) (1.54807 0.0399257 2.16178e-21) (1.55057 0.0323572 -7.04895e-23) (1.56082 0.0316699 9.62795e-23) (1.56115 0.0238219 -6.85665e-23) (1.57023 0.0211218 2.86873e-21) (1.56906 0.0123582 1.28812e-21) (1.57703 0.00598737 7.46981e-21) (1.57231 -0.00180662 0) (1.5716 -0.00868112 2.00323e-21) (1.57435 -0.0208119 2.10246e-20) (1.56311 -0.0240147 -2.25949e-21) (1.55074 -0.0270859 0) (1.52832 -0.0315405 9.71218e-22) (1.50203 -0.051272 -2.92748e-21) (1.45809 -0.00546245 3.26771e-21) (1.39838 0.029607 0) (1.25515 -0.00658694 -2.4219e-20) (0.995021 0.140109 3.06129e-21) (0.804213 0.0291868 1.25496e-20) (1.00527 0.626975 3.03691e-21) (1.08818 0.478543 9.78605e-21)
0.13          (1.47838 0.00214519 0) (1.48207 0.00595598 1.19214e-21) (1.4802 0.0117661 1.69508e-20) (1.48483 0.0153804 -6.67753e-21) (1.48472 0.0217367 3.41351e-20) (1.4897 0.0237804 0) (1.4925 0.0270196 -7.32116e-21) (1.49538 0.0329534 4.55095e-20) (1.49999 0.0328242 5.95174e-21) (1.50622 0.0347461 0) (1.51221 0.0356301 -3.66069e-21) (1.51707 0.0399502 1.95495e-20) (1.52188 0.0350368 1.89873e-21) (1.52618 0.0340499 0) (1.53306 0.0363956 1.09464e-21) (1.53563 0.0302807 -1.01509e-22) (1.54307 0.0309338 -1.65454e-21) (1.54409 0.0249488 1.51608e-22) (1.55147 0.0239717 4.1195e-22) (1.55112 0.0186773 -2.35473e-22) (1.55727 0.0170697 4.67377e-21) (1.55666 0.0118504 1.77459e-21) (1.56217 0.00926295 8.29255e-21) (1.56107 0.00458238 0) (1.56303 0.00117181 1.71711e-21) (1.56958 -0.0016497 1.33526e-20) (1.56917 -0.00808286 -1.12352e-21) (1.57453 -0.0177704 0) (1.58804 -0.035132 6.54047e-23) (1.61445 -0.0443201 -9.19026e-22) (1.61151 -0.101513 8.67655e-23) (1.62061 -0.162322 0) (1.7089 -0.262052 2.12788e-20) (1.59574 -0.433211 -6.57927e-21) (1.6858 -0.71597 3.87303e-20) (1.42329 -0.849119 2.99837e-21) (1.29173 -0.89288 7.92464e-21)
0.14          (1.47908 -0.000897988 0) (1.4822 0.00388027 1.33071e-21) (1.47971 0.00844904 1.98735e-20) (1.48395 0.0129855 -8.19951e-21) (1.48301 0.0182598 4.39036e-20) (1.48798 0.0211085 0) (1.49047 0.0242726 -1.04937e-20) (1.49238 0.0297836 7.11314e-20) (1.4975 0.0302063 1.01954e-20) (1.50348 0.0320453 0) (1.50923 0.0341638 -8.24814e-21) (1.51408 0.0393823 5.44429e-20) (1.5194 0.0352106 6.75972e-21) (1.52417 0.0349342 0) (1.53164 0.038398 1.78087e-20) (1.53501 0.0321189 3.83784e-21) (1.54353 0.0331248 8.0856e-21) (1.54501 0.0259364 -4.94179e-22) (1.55382 0.0238806 -6.20632e-22) (1.55293 0.0166423 3.8303e-22) (1.56021 0.0127064 -4.08478e-21) (1.55733 0.00514901 -1.61037e-21) (1.56251 -0.0019061 -5.24836e-21) (1.55633 -0.00717214 0) (1.55362 -0.01227 -1.92446e-21) (1.55146 -0.0223893 -9.76667e-21) (1.54106 -0.0202871 1.92073e-21) (1.52831 -0.0159262 0) (1.50622 -0.00637107 -3.43712e-21) (1.47266 -0.00902709 -3.04425e-20) (1.45677 0.0613802 6.16113e-21) (1.42151 0.135417 0) (1.22707 0.181553 -2.93905e-20) (1.21618 0.49825 1.84896e-21) (1.11785 0.668546 1.46017e-20) (1.24489 0.902871 2.59394e-21) (1.28429 0.958372 6.25081e-21)
0.15          (1.47941 0.0018762 0) (1.48288 0.00529402 1.72947e-21) (1.48108 0.0111086 2.44722e-20) (1.48545 0.0144094 -9.83335e-21) (1.48538 0.0207275 5.05433e-20) (1.49006 0.0225894 0) (1.49272 0.0257303 -1.15572e-20) (1.49558 0.0314132 7.37891e-20) (1.49986 0.0312296 1.02576e-20) (1.50579 0.0329618 0) (1.51149 0.0334236 -7.63317e-21) (1.51604 0.0370881 4.76821e-20) (1.52048 0.0322269 5.89599e-21) (1.52442 0.0310145 0) (1.53074 0.0328117 1.37497e-20) (1.53296 0.0270646 2.95897e-21) (1.5397 0.0275337 5.7759e-21) (1.54049 0.0221819 -3.75773e-22) (1.54717 0.0214213 -4.34984e-22) (1.54679 0.0168048 3.06071e-22) (1.55243 0.0155003 -3.29094e-21) (1.55192 0.0107177 -1.57428e-21) (1.55725 0.00834564 -5.99395e-21) (1.55626 0.00338007 0) (1.5582 -0.000499718 -2.86125e-21) (1.56524 -0.00435727 -2.00562e-20) (1.56369 -0.0123134 3.57243e-21) (1.56695 -0.0243707 0) (1.57582 -0.0467835 -4.96772e-21) (1.59928 -0.065785 -3.4481e-20) (1.5775 -0.120793 5.15196e-21) (1.56773 -0.182285 0) (1.61866 -0.296822 -3.98587e-21) (1.48201 -0.423552 -1.37968e-21) (1.52884 -0.690174 1.839e-20) (1.32755 -0.781126 2.09297e-21) (1.3204 -0.954376 5.20859e-21)
0.16          (1.47942 -0.000463542 0) (1.48259 0.00426865 1.48425e-21) (1.48025 0.00870156 2.21248e-20) (1.48453 0.013123 -9.16467e-21) (1.48373 0.0182411 4.906e-20) (1.48869 0.0209342 0) (1.49122 0.0239596 -1.18562e-20) (1.49323 0.0293594 8.04793e-20) (1.49827 0.0296237 1.16371e-20) (1.50418 0.0313849 0) (1.50987 0.0334011 -9.57014e-21) (1.51477 0.0385183 6.39245e-20) (1.51985 0.0342741 8.06958e-21) (1.52449 0.0338769 0) (1.53188 0.0369817 2.19558e-20) (1.5349 0.030608 4.82235e-21) (1.54318 0.0310295 1.04548e-20) (1.54422 0.0237911 -6.5845e-22) (1.55253 0.0210823 -8.79906e-22) (1.55115 0.0140078 5.47322e-22) (1.55777 0.00963576 -6.45409e-21) (1.55433 0.00263122 -2.59924e-21) (1.55853 -0.00440193 -9.43091e-21) (1.55214 -0.00855142 0) (1.54905 -0.0127385 -3.26885e-21) (1.54571 -0.0213529 -1.9762e-20) (1.53659 -0.0176377 3.32954e-21) (1.52564 -0.0111179 0) (1.50757 0.0028844 -5.03933e-21) (1.47584 0.00922499 -4.07393e-20) (1.47959 0.0801595 7.50245e-21) (1.4685 0.161674 0) (1.27132 0.256524 -3.32752e-20) (1.33978 0.554123 1.75081e-21) (1.22745 0.765626 1.41133e-20) (1.28999 0.897516 2.75409e-21) (1.29381 0.944412 5.61487e-21)
0.17          (1.47949 0.00134695 0) (1.48285 0.00480973 1.2778e-21) (1.48094 0.0105668 1.8006e-20) (1.48519 0.0139565 -7.0916e-21) (1.48499 0.0202151 3.60518e-20) (1.48961 0.0221991 0) (1.4922 0.0253633 -7.77317e-21) (1.49492 0.030951 4.80169e-20) (1.49921 0.0308897 6.32094e-21) (1.50509 0.0325928 0) (1.51072 0.0330969 -3.9751e-21) (1.51517 0.0367614 2.17025e-20) (1.51969 0.0320414 2.267e-21) (1.52365 0.0309436 0) (1.52993 0.0329631 2.31236e-21) (1.53234 0.0273715 2.32479e-22) (1.53916 0.028179 -7.85301e-22) (1.5402 0.0228873 8.00881e-23) (1.54713 0.0224193 2.8465e-22) (1.54701 0.0176182 -1.49331e-22) (1.55304 0.016396 3.26453e-21) (1.55275 0.0110498 1.14996e-21) (1.55868 0.0083527 5.46006e-21) (1.55754 0.00244651 0) (1.55949 -0.00229128 7.83314e-22) (1.5671 -0.00779159 6.35524e-21) (1.56395 -0.0167772 -1.41798e-22) (1.56482 -0.0301815 0) (1.56898 -0.0551088 -8.57518e-22) (1.58791 -0.0802887 -7.94887e-21) (1.55399 -0.128587 1.38308e-21) (1.53184 -0.186298 0) (1.55981 -0.304247 8.46449e-21) (1.41424 -0.407257 -3.61132e-21) (1.43372 -0.641892 2.19319e-20) (1.25555 -0.752211 2.59247e-21) (1.29617 -0.914835 5.72441e-21)
0.18          (1.47948 0.000108311 0) (1.48274 0.00473641 1.27894e-21) (1.48053 0.00923451 1.91613e-20) (1.4849 0.0135152 -7.91021e-21) (1.48425 0.0186895 4.24125e-20) (1.48924 0.0212225 0) (1.49183 0.0242036 -1.01324e-20) (1.49399 0.0296601 6.87315e-20) (1.49898 0.0297781 9.84706e-21) (1.50491 0.0315372 0) (1.51063 0.0334427 -7.93732e-21) (1.5156 0.0384568 5.23436e-20) (1.52053 0.0340644 6.469e-21) (1.5251 0.033503 0) (1.53246 0.036272 1.69502e-20) (1.53521 0.0297825 3.63727e-21) (1.54333 0.0298121 7.61835e-21) (1.54406 0.0226035 -4.63612e-22) (1.55202 0.019622 -5.74967e-22) (1.55037 0.0128226 3.5599e-22) (1.55654 0.00840972 -3.73555e-21) (1.55289 0.00200216 -1.48452e-21) (1.5565 -0.00466653 -4.82573e-21) (1.55029 -0.00797627 0) (1.54724 -0.0114021 -1.84739e-21) (1.54346 -0.0184753 -9.97818e-21) (1.53589 -0.0140008 1.96608e-21) (1.52732 -0.0063361 0) (1.51415 0.0103343 -3.64714e-21) (1.48632 0.0241593 -3.1307e-20) (1.50789 0.090159 5.95162e-21) (1.52039 0.171341 0) (1.33762 0.308077 -2.56711e-20) (1.43001 0.560289 -4.5885e-22) (1.29299 0.798369 1.8614e-20) (1.30849 0.881479 3.23821e-21) (1.27189 0.915067 5.76316e-21)
0.19          (1.47949 0.000749122 0) (1.48274 0.00432836 1.27148e-21) (1.4807 0.00998477 1.79556e-20) (1.48486 0.0135224 -7.08286e-21) (1.48451 0.0196874 3.60815e-20) (1.48909 0.0218337 0) (1.49161 0.0250267 -7.8112e-21) (1.49417 0.0305351 4.84549e-20) (1.49852 0.0306173 6.40521e-21) (1.50436 0.0323173 0) (1.50994 0.0329567 -4.08623e-21) (1.51432 0.0367324 2.26106e-20) (1.51897 0.0321808 2.4026e-21) (1.52301 0.0312536 0) (1.52932 0.0335959 2.82204e-21) (1.53198 0.0281227 3.57322e-22) (1.53897 0.0292919 -4.63503e-22) (1.5403 0.023955 5.80692e-23) (1.54758 0.0237064 2.47696e-22) (1.54771 0.0185927 -1.27176e-22) (1.55419 0.0173518 2.9393e-21) (1.55405 0.0113668 1.02505e-21) (1.56055 0.00823401 4.96707e-21) (1.55912 0.00149643 0) (1.56094 -0.00400713 6.65039e-22) (1.56876 -0.0111364 5.82478e-21) (1.56391 -0.0206115 -8.2232e-23) (1.56219 -0.0345763 0) (1.56133 -0.0606645 -8.58189e-22) (1.57486 -0.0905456 -8.36232e-21) (1.53094 -0.130247 1.61509e-21) (1.49791 -0.182604 0) (1.50559 -0.302385 5.54449e-21) (1.35081 -0.386137 -2.95455e-21) (1.3546 -0.607363 1.97219e-20) (1.17758 -0.739431 2.70389e-21) (1.25602 -0.888526 5.63964e-21)
0.2           (1.4795 0.000715686 0) (1.48287 0.00520698 1.36452e-21) (1.4808 0.00981723 2.03378e-20) (1.48525 0.0139351 -8.38976e-21) (1.48476 0.0192085 4.4823e-20) (1.48978 0.0215706 0) (1.49243 0.0245199 -1.07126e-20) (1.49475 0.0300474 7.23444e-20) (1.49967 0.0300191 1.0376e-20) (1.50562 0.0317797 0) (1.51138 0.0335385 -8.34846e-21) (1.51642 0.0384138 5.51026e-20) (1.5212 0.0338624 6.83932e-21) (1.52567 0.0331233 0) (1.53298 0.0355495 1.79812e-20) (1.53548 0.028972 3.88095e-21) (1.5434 0.02866 8.17131e-21) (1.54386 0.0215398 -5.03978e-22) (1.55145 0.0183901 -6.35704e-22) (1.54959 0.0119218 3.97627e-22) (1.55533 0.00758226 -4.33206e-21) (1.5516 0.00179148 -1.75723e-21) (1.5547 -0.00439512 -6.02864e-21) (1.54884 -0.00696896 0) (1.54597 -0.00969299 -2.31089e-21) (1.5421 -0.015202 -1.37339e-20) (1.5362 -0.0103824 2.53755e-21) (1.5303 -0.00221135 0) (1.52265 0.0157935 -4.41878e-21) (1.50057 0.0360138 -3.61582e-20) (1.53855 0.0919725 6.49873e-21) (1.57426 0.165348 0) (1.42535 0.337596 -2.47813e-20) (1.52374 0.524404 -1.75866e-21) (1.35132 0.803929 2.17216e-20) (1.33168 0.833824 3.80468e-21) (1.2375 0.900767 5.99383e-21)
0.21          (1.47948 0.000140721 0) (1.48263 0.0038692 1.34376e-21) (1.48044 0.00939335 1.90552e-20) (1.48452 0.013102 -7.56047e-21) (1.48401 0.0191476 3.86905e-20) (1.48857 0.0214676 0) (1.49103 0.0246851 -8.50974e-21) (1.49341 0.0301199 5.33671e-20) (1.49784 0.0303462 7.16695e-21) (1.50365 0.0320475 0) (1.5092 0.0328652 -4.79076e-21) (1.51353 0.0367933 2.76958e-20) (1.51832 0.0324113 3.09997e-21) (1.52246 0.0316649 0) (1.52884 0.0343451 5.04155e-21) (1.53175 0.0289539 8.80048e-22) (1.53895 0.03045 7.92742e-22) (1.54056 0.0250036 -2.71146e-23) (1.54822 0.0248875 1.14448e-22) (1.54853 0.0194063 -4.45801e-23) (1.55545 0.0180474 1.7763e-21) (1.55534 0.0114176 5.55804e-22) (1.56232 0.00774293 3.06501e-21) (1.56045 0.000297944 0) (1.562 -0.0058904 9.78671e-23) (1.56967 -0.0146074 2.1529e-21) (1.56307 -0.024119 4.3008e-22) (1.55865 -0.0379837 0) (1.55268 -0.0640281 -1.39501e-21) (1.56021 -0.0972241 -1.24354e-20) (1.50822 -0.126891 2.40894e-21) (1.46539 -0.172479 0) (1.45348 -0.292807 8.57303e-22) (1.28689 -0.358822 -2.10924e-21) (1.2786 -0.585676 1.80919e-20) (1.09371 -0.710265 3.01011e-21) (1.2072 -0.878053 5.94744e-21)
0.22          (1.47951 0.001315 0) (1.48298 0.00564571 1.39461e-21) (1.48105 0.0104001 2.06863e-20) (1.48558 0.0143418 -8.50975e-21) (1.48524 0.0197425 4.52776e-20) (1.49028 0.0219311 0) (1.49299 0.0248588 -1.07652e-20) (1.49548 0.0304598 7.22456e-20) (1.50031 0.0302921 1.0329e-20) (1.50629 0.0320539 0) (1.51208 0.0336365 -8.21197e-21) (1.51716 0.0383444 5.39087e-20) (1.5218 0.0336337 6.66163e-21) (1.52617 0.0327136 0) (1.53339 0.0348039 1.72552e-20) (1.53566 0.0281689 3.70865e-21) (1.54336 0.0275679 7.71998e-21) (1.54358 0.0205815 -4.75673e-22) (1.55081 0.017351 -5.8828e-22) (1.54881 0.0112434 3.71782e-22) (1.55414 0.00706383 -3.96692e-21) (1.55043 0.00187229 -1.63731e-21) (1.55314 -0.00375644 -5.60555e-21) (1.54774 -0.0057265 0) (1.54518 -0.0078402 -2.27345e-21) (1.54156 -0.0118447 -1.39751e-20) (1.53736 -0.00710218 2.62289e-21) (1.5343 0.000844463 0) (1.53247 0.018757 -4.64836e-21) (1.51772 0.0437745 -3.7213e-20) (1.56914 0.0849551 6.45349e-21) (1.62504 0.143218 0) (1.53258 0.337076 -1.9061e-20) (1.62708 0.4371 -4.06894e-21) (1.41371 0.777099 2.7859e-20) (1.36754 0.71881 4.70473e-21) (1.19871 0.885969 6.73831e-21)
0.23          (1.47946 -0.000439679 0) (1.48251 0.00346006 1.31313e-21) (1.48019 0.00882847 1.87244e-20) (1.4842 0.012719 -7.45634e-21) (1.48353 0.0186267 3.83535e-20) (1.48809 0.0211198 0) (1.49049 0.0243553 -8.50639e-21) (1.49271 0.0297242 5.38579e-20) (1.49723 0.0300856 7.28701e-21) (1.50302 0.0317922 0) (1.50854 0.032813 -4.99902e-21) (1.51284 0.0369213 2.94866e-20) (1.51778 0.0326982 3.361e-21) (1.52202 0.0321294 0) (1.52851 0.0351386 6.0711e-21) (1.53166 0.0297874 1.12594e-21) (1.5391 0.0315521 1.43001e-21) (1.54093 0.0259399 -6.86811e-23) (1.54897 0.0258588 4.52544e-23) (1.5494 0.0199802 -4.77013e-24) (1.55673 0.0184081 1.20419e-21) (1.55653 0.011167 3.47594e-22) (1.56386 0.00687275 2.26167e-21) (1.56143 -0.00111691 0) (1.56256 -0.00787301 -7.11413e-23) (1.56973 -0.0180463 1.36204e-21) (1.56147 -0.0271575 5.06871e-22) (1.55439 -0.0402962 0) (1.54345 -0.0651539 -1.43845e-21) (1.54465 -0.100267 -1.32335e-20) (1.48654 -0.118792 2.69687e-21) (1.43495 -0.156193 0) (1.40324 -0.27563 -2.1377e-21) (1.22019 -0.323348 -1.64137e-21) (1.19398 -0.569307 1.75507e-20) (1.01641 -0.622899 3.44427e-21) (1.15621 -0.852838 6.58228e-21)
0.24          (1.47951 0.00186785 0) (1.48307 0.0060239 1.33825e-21) (1.48126 0.0109449 1.97485e-20) (1.48586 0.0147079 -8.08608e-21) (1.48567 0.0202557 4.2848e-20) (1.49071 0.0222788 0) (1.49347 0.0251959 -1.00878e-20) (1.49612 0.0308681 6.72537e-20) (1.50086 0.0305758 9.5416e-21) (1.50686 0.0323384 0) (1.51268 0.0337245 -7.4724e-21) (1.51778 0.0382465 4.84691e-20) (1.52229 0.0333855 5.93799e-21) (1.52656 0.0322918 0) (1.53368 0.0340726 1.49249e-20) (1.53573 0.0274133 3.17375e-21) (1.54321 0.0265907 6.44233e-21) (1.54323 0.0197751 -3.93194e-22) (1.55013 0.0165536 -4.62292e-22) (1.54804 0.0108159 2.96855e-22) (1.55304 0.00687209 -2.95857e-21) (1.54944 0.00222788 -1.25489e-21) (1.55188 -0.00280015 -4.14028e-21) (1.54704 -0.00433347 0) (1.54491 -0.00596462 -1.89459e-21) (1.54188 -0.00861498 -1.18124e-20) (1.53931 -0.00438102 2.34227e-21) (1.53907 0.00263619 0) (1.54292 0.0189476 -4.34051e-21) (1.53662 0.0466565 -3.43334e-20) (1.59693 0.0694965 5.77183e-21) (1.66723 0.106877 0) (1.65064 0.29986 -8.6251e-21) (1.74016 0.292709 -6.85104e-21) (1.48737 0.697695 3.58521e-20) (1.41695 0.510247 5.5648e-21) (1.16494 0.828953 7.73502e-21)