# Solver information
# Time        	U_solver      	Ux_initial    	Ux_final      	Ux_iters      	Uy_initial    	Uy_final      	Uy_iters      	U_converged   	p_solver      	p_initial     	p_final       	p_iters       	p_converged   
1.1919e-05    	smoothSolver	1.000000e+00	4.196040e-06	7	1.000000e+00	6.494860e-06	7	false	GAMG	1.000000e+00	3.976530e-03	8	true
1.9038e-05    	smoothSolver	1.351140e-01	8.221810e-06	3	2.291060e-01	2.024370e-06	4	false	GAMG	3.024710e-01	2.607450e-03	7	true
2.61622e-05   	smoothSolver	1.135700e-02	1.342070e-06	3	1.534650e-02	6.895720e-06	2	false	GAMG	4.871470e-01	3.060260e-03	5	true
3.33222e-05   	smoothSolver	2.493770e-03	5.382290e-06	2	3.903440e-03	4.734780e-06	2	false	GAMG	2.492770e-01	1.363860e-03	4	true
4.0508e-05    	smoothSolver	1.629210e-03	4.161470e-06	2	2.855160e-03	4.695360e-06	2	false	GAMG	1.598840e-01	8.391660e-04	2	true
4.7725e-05    	smoothSolver	1.424860e-03	3.506000e-06	2	2.744320e-03	4.606930e-06	2	false	GAMG	1.226910e-01	1.068550e-03	2	true
5.49735e-05   	smoothSolver	1.253510e-03	3.044320e-06	2	2.611950e-03	4.421010e-06	2	false	GAMG	1.003720e-01	5.865660e-04	3	true
6.22646e-05   	smoothSolver	1.125320e-03	2.711010e-06	2	2.509880e-03	4.248220e-06	2	false	GAMG	8.712680e-02	6.738810e-04	3	true
6.96042e-05   	smoothSolver	1.018250e-03	2.455300e-06	2	2.407800e-03	4.088650e-06	2	false	GAMG	7.737940e-02	6.849170e-04	3	true
7.69928e-05   	smoothSolver	9.295560e-04	2.244420e-06	2	2.313550e-03	3.939770e-06	2	false	GAMG	6.921150e-02	6.800830e-04	3	true
8.44314e-05   	smoothSolver	8.547580e-04	2.069050e-06	2	2.225920e-03	3.804710e-06	2	false	GAMG	6.220640e-02	3.570950e-04	4	true
9.19318e-05   	smoothSolver	7.930160e-04	1.934780e-06	2	2.150400e-03	3.708390e-06	2	false	GAMG	5.556500e-02	3.494360e-04	4	true
9.94895e-05   	smoothSolver	7.387130e-04	1.815760e-06	2	2.077840e-03	3.611800e-06	2	false	GAMG	4.967770e-02	3.273140e-04	4	true
0.000107111   	smoothSolver	6.922800e-04	1.718190e-06	2	2.015610e-03	3.535230e-06	2	false	GAMG	4.442880e-02	3.079500e-04	4	true
0.000114798   	smoothSolver	6.514900e-04	1.633970e-06	2	1.960270e-03	3.468260e-06	2	false	GAMG	4.015250e-02	2.914590e-04	4	true
0.000122551   	smoothSolver	6.154280e-04	1.561150e-06	2	1.909360e-03	3.411250e-06	2	false	GAMG	3.646420e-02	2.769250e-04	4	true
0.000130322   	smoothSolver	5.797200e-04	1.464920e-06	2	1.850810e-03	3.293920e-06	2	false	GAMG	3.306000e-02	2.603090e-04	4	true
0.000138106   	smoothSolver	5.476330e-04	1.376750e-06	2	1.795610e-03	3.185550e-06	2	false	GAMG	2.995350e-02	2.441710e-04	4	true
0.000145896   	smoothSolver	5.186050e-04	1.295250e-06	2	1.743300e-03	3.078380e-06	2	false	GAMG	2.734830e-02	2.278260e-04	4	true
0.000153698   	smoothSolver	4.929950e-04	1.226420e-06	2	1.696280e-03	2.988660e-06	2	false	GAMG	2.508180e-02	2.131370e-04	4	true
0.000161513   	smoothSolver	4.699460e-04	1.164810e-06	2	1.652730e-03	2.905350e-06	2	false	GAMG	2.289200e-02	1.986690e-04	4	true
0.000169339   	smoothSolver	4.491450e-04	1.109210e-06	2	1.612650e-03	2.828220e-06	2	false	GAMG	2.117370e-02	1.854480e-04	4	true
0.000177185   	smoothSolver	4.306250e-04	1.061880e-06	2	1.577020e-03	2.766210e-06	2	false	GAMG	1.978220e-02	1.731540e-04	4	true
0.000185043   	smoothSolver	4.134490e-04	1.015850e-06	2	1.543530e-03	2.702650e-06	2	false	GAMG	1.856290e-02	1.617980e-04	4	true
0.000192921   	smoothSolver	3.981180e-04	9.765160e-07	2	1.513820e-03	2.651120e-06	2	false	GAMG	1.772480e-02	1.513440e-04	4	true
0.00020081    	smoothSolver	3.837990e-04	9.378060e-07	2	1.486260e-03	2.595450e-06	2	false	GAMG	1.692540e-02	1.415930e-04	4	true
0.000208719   	smoothSolver	3.709900e-04	9.049600e-07	2	1.462890e-03	2.550950e-06	2	false	GAMG	1.616000e-02	1.331380e-04	4	true
0.000216648   	smoothSolver	3.592410e-04	8.749820e-07	2	1.441200e-03	2.509480e-06	2	false	GAMG	1.572820e-02	1.249020e-04	4	true
0.000224595   	smoothSolver	3.484790e-04	9.976400e-06	1	1.421070e-03	2.471080e-06	2	false	GAMG	1.503200e-02	1.239510e-04	5	true
0.000232562   	smoothSolver	3.362210e-04	9.691750e-06	1	1.391200e-03	2.427850e-06	2	false	GAMG	1.417360e-02	9.665700e-05	5	true
0.000240548   	smoothSolver	3.275160e-04	9.431610e-06	1	1.374800e-03	2.396490e-06	2	false	GAMG	1.386920e-02	9.503940e-05	5	true
0.000248555   	smoothSolver	3.192890e-04	9.188350e-06	1	1.358980e-03	2.372620e-06	2	false	GAMG	1.327360e-02	9.131270e-05	5	true
0.00025658    	smoothSolver	3.116340e-04	8.960030e-06	1	1.344460e-03	2.351380e-06	2	false	GAMG	1.287040e-02	8.828470e-05	5	true
0.000264626   	smoothSolver	3.044930e-04	8.745880e-06	1	1.330900e-03	2.332200e-06	2	false	GAMG	1.262150e-02	8.559520e-05	5	true
0.000272692   	smoothSolver	2.978260e-04	8.545590e-06	1	1.318270e-03	2.314570e-06	2	false	GAMG	1.214350e-02	8.263250e-05	5	true
0.000280778   	smoothSolver	2.915890e-04	8.357250e-06	1	1.306470e-03	2.297970e-06	2	false	GAMG	1.179430e-02	7.987020e-05	5	true
0.000288891   	smoothSolver	2.859860e-04	8.196490e-06	1	1.296520e-03	2.289850e-06	2	false	GAMG	1.165430e-02	7.787440e-05	5	true
0.000297024   	smoothSolver	2.804940e-04	8.029490e-06	1	1.286130e-03	2.277000e-06	2	false	GAMG	1.130910e-02	7.523240e-05	5	true
0.000305178   	smoothSolver	2.753460e-04	7.872220e-06	1	1.276500e-03	2.265370e-06	2	false	GAMG	1.105180e-02	7.297960e-05	5	true
0.000313352   	smoothSolver	2.705110e-04	7.724060e-06	1	1.267530e-03	2.254110e-06	2	false	GAMG	1.074740e-02	7.094360e-05	5	true
0.000321547   	smoothSolver	2.659600e-04	7.585720e-06	1	1.259200e-03	2.243620e-06	2	false	GAMG	1.057980e-02	6.916580e-05	5	true
0.000329763   	smoothSolver	2.616760e-04	7.456520e-06	1	1.251760e-03	2.233670e-06	2	false	GAMG	1.026710e-02	6.703860e-05	5	true
0.000338      	smoothSolver	2.576440e-04	7.335000e-06	1	1.245810e-03	2.224540e-06	2	false	GAMG	1.022660e-02	6.525130e-05	5	true
0.000346258   	smoothSolver	2.538330e-04	7.220080e-06	1	1.240360e-03	2.215820e-06	2	false	GAMG	1.018750e-02	6.371880e-05	5	true
0.000354538   	smoothSolver	2.502340e-04	7.111910e-06	1	1.235350e-03	2.207510e-06	2	false	GAMG	9.907770e-03	6.215440e-05	5	true
0.000362838   	smoothSolver	2.468350e-04	7.010830e-06	1	1.230690e-03	2.199410e-06	2	false	GAMG	9.578900e-03	6.056250e-05	5	true
0.000371161   	smoothSolver	2.436240e-04	6.917270e-06	1	1.226380e-03	2.193170e-06	2	false	GAMG	9.417960e-03	5.906350e-05	5	true
0.000379505   	smoothSolver	2.405890e-04	6.830370e-06	1	1.222400e-03	2.188800e-06	2	false	GAMG	9.270290e-03	5.772820e-05	5	true
0.00038787    	smoothSolver	2.377180e-04	6.747610e-06	1	1.218740e-03	2.186740e-06	2	false	GAMG	9.216320e-03	5.661470e-05	5	true
0.000396258   	smoothSolver	2.349990e-04	6.668900e-06	1	1.215410e-03	2.185350e-06	2	false	GAMG	9.035530e-03	5.531000e-05	5	true
0.000404667   	smoothSolver	2.324270e-04	6.593640e-06	1	1.212390e-03	2.184210e-06	2	false	GAMG	8.939390e-03	5.414110e-05	5	true
0.000413092   	smoothSolver	2.297920e-04	6.508160e-06	1	1.208590e-03	2.176690e-06	2	false	GAMG	8.749470e-03	5.282240e-05	5	true
0.000421538   	smoothSolver	2.274920e-04	6.439610e-06	1	1.206190e-03	2.177570e-06	2	false	GAMG	8.682790e-03	5.181060e-05	5	true
0.000430007   	smoothSolver	2.253150e-04	6.374070e-06	1	1.204000e-03	2.178460e-06	2	false	GAMG	8.663630e-03	5.095420e-05	5	true
0.000438491   	smoothSolver	2.230560e-04	6.297740e-06	1	1.201000e-03	2.172530e-06	2	false	GAMG	8.438070e-03	4.975550e-05	5	true
0.000446983   	smoothSolver	2.207290e-04	6.211030e-06	1	1.197180e-03	2.159380e-06	2	false	GAMG	8.307290e-03	4.852010e-05	5	true
0.000455482   	smoothSolver	2.185180e-04	6.127180e-06	1	1.193660e-03	2.146800e-06	2	false	GAMG	8.179260e-03	4.745290e-05	5	true
0.000463989   	smoothSolver	2.164020e-04	6.046110e-06	1	1.190380e-03	2.134150e-06	2	false	GAMG	8.114180e-03	4.646050e-05	5	true
0.000472503   	smoothSolver	2.143850e-04	5.967940e-06	1	1.187580e-03	2.121350e-06	2	false	GAMG	8.086340e-03	4.557440e-05	5	true
0.000481025   	smoothSolver	2.124450e-04	5.891820e-06	1	1.185260e-03	2.108610e-06	2	false	GAMG	8.013380e-03	4.469900e-05	5	true
0.000489555   	smoothSolver	2.105870e-04	5.818460e-06	1	1.183730e-03	2.096110e-06	2	false	GAMG	7.873440e-03	4.374940e-05	5	true
0.000498092   	smoothSolver	2.087990e-04	5.747540e-06	1	1.182590e-03	2.084520e-06	2	false	GAMG	7.704960e-03	4.290410e-05	5	true
0.000506637   	smoothSolver	2.070890e-04	5.679180e-06	1	1.181540e-03	2.073020e-06	2	false	GAMG	7.614990e-03	4.205930e-05	5	true
0.000515189   	smoothSolver	2.054420e-04	5.612990e-06	1	1.180630e-03	2.062150e-06	2	false	GAMG	7.502790e-03	4.130860e-05	5	true
0.000523749   	smoothSolver	2.038610e-04	5.548930e-06	1	1.179800e-03	2.051570e-06	2	false	GAMG	7.492410e-03	4.068900e-05	5	true
0.000532318   	smoothSolver	2.023420e-04	5.487020e-06	1	1.179040e-03	2.041300e-06	2	false	GAMG	7.383430e-03	3.986250e-05	5	true
0.000540893   	smoothSolver	2.008840e-04	5.427070e-06	1	1.178390e-03	2.032430e-06	2	false	GAMG	7.345400e-03	3.938370e-05	5	true
0.000549477   	smoothSolver	1.994790e-04	5.369190e-06	1	1.177830e-03	2.025250e-06	2	false	GAMG	7.268490e-03	3.875400e-05	5	true
0.000558068   	smoothSolver	1.981270e-04	5.314390e-06	1	1.177320e-03	2.018210e-06	2	false	GAMG	7.212190e-03	3.809460e-05	5	true
0.000566667   	smoothSolver	1.968260e-04	5.261640e-06	1	1.176890e-03	2.011530e-06	2	false	GAMG	7.110410e-03	3.758630e-05	5	true
0.000575275   	smoothSolver	1.955710e-04	5.210530e-06	1	1.176520e-03	2.004650e-06	2	false	GAMG	7.080040e-03	3.700600e-05	5	true
0.000583889   	smoothSolver	1.943650e-04	5.161130e-06	1	1.176170e-03	1.997730e-06	2	false	GAMG	7.078380e-03	3.654340e-05	5	true
0.000592512   	smoothSolver	1.932000e-04	5.113350e-06	1	1.175900e-03	1.990850e-06	2	false	GAMG	7.161140e-03	3.624280e-05	5	true
0.000601143   	smoothSolver	1.920740e-04	5.066790e-06	1	1.175740e-03	1.984040e-06	2	false	GAMG	7.023950e-03	3.582740e-05	5	true
0.000609774   	smoothSolver	1.908130e-04	5.010510e-06	1	1.174530e-03	1.970480e-06	2	false	GAMG	6.867320e-03	3.516930e-05	5	true
0.000618412   	smoothSolver	1.897700e-04	4.967260e-06	1	1.174470e-03	1.963920e-06	2	false	GAMG	6.838660e-03	3.489130e-05	5	true
0.000627059   	smoothSolver	1.887620e-04	4.925640e-06	1	1.174430e-03	1.957160e-06	2	false	GAMG	6.783860e-03	3.450640e-05	5	true
0.000635714   	smoothSolver	1.877870e-04	4.885300e-06	1	1.174480e-03	1.950670e-06	2	false	GAMG	6.745980e-03	3.416840e-05	5	true
0.000644376   	smoothSolver	1.868470e-04	4.846750e-06	1	1.174590e-03	1.944500e-06	2	false	GAMG	6.653240e-03	3.378610e-05	5	true
0.000653047   	smoothSolver	1.859400e-04	4.809430e-06	1	1.174930e-03	1.938180e-06	2	false	GAMG	6.645770e-03	3.358130e-05	5	true
0.000661726   	smoothSolver	1.850630e-04	4.772940e-06	1	1.175790e-03	1.932050e-06	2	false	GAMG	6.588500e-03	3.329620e-05	5	true
0.000670412   	smoothSolver	1.842150e-04	4.737280e-06	1	1.176840e-03	1.926530e-06	2	false	GAMG	6.575030e-03	3.291880e-05	5	true
0.000679107   	smoothSolver	1.833940e-04	4.702380e-06	1	1.177900e-03	1.921220e-06	2	false	GAMG	6.570730e-03	3.276030e-05	5	true
0.00068781    	smoothSolver	1.826000e-04	4.668400e-06	1	1.178960e-03	1.915870e-06	2	false	GAMG	6.669950e-03	3.246430e-05	5	true
0.000696521   	smoothSolver	1.818310e-04	4.635180e-06	1	1.179960e-03	1.910630e-06	2	false	GAMG	6.723540e-03	3.272220e-05	5	true
0.000705241   	smoothSolver	1.810880e-04	4.602300e-06	1	1.181140e-03	1.906190e-06	2	false	GAMG	6.610570e-03	3.218760e-05	5	true
0.000713968   	smoothSolver	1.803660e-04	4.570090e-06	1	1.182260e-03	1.901630e-06	2	false	GAMG	6.546290e-03	3.202320e-05	5	true
0.000722704   	smoothSolver	1.796690e-04	4.538620e-06	1	1.183400e-03	1.897510e-06	2	false	GAMG	6.419390e-03	3.182850e-05	5	true
0.000731439   	smoothSolver	1.788250e-04	4.497350e-06	1	1.183390e-03	1.886950e-06	2	false	GAMG	6.424560e-03	3.155460e-05	5	true
0.000740183   	smoothSolver	1.781740e-04	4.467140e-06	1	1.184480e-03	1.883090e-06	2	false	GAMG	6.375470e-03	3.147110e-05	5	true
0.000748936   	smoothSolver	1.775410e-04	4.437240e-06	1	1.185570e-03	1.879310e-06	2	false	GAMG	6.301020e-03	3.133850e-05	5	true
0.000757696   	smoothSolver	1.769300e-04	4.407990e-06	1	1.186660e-03	1.875600e-06	2	false	GAMG	6.238610e-03	3.117820e-05	5	true
0.000766465   	smoothSolver	1.763410e-04	4.379550e-06	1	1.187730e-03	1.871840e-06	2	false	GAMG	6.235760e-03	3.113590e-05	5	true
0.000775242   	smoothSolver	1.757680e-04	4.351650e-06	1	1.188800e-03	1.868080e-06	2	false	GAMG	6.245790e-03	3.110290e-05	5	true
0.000784019   	smoothSolver	1.750430e-04	4.314110e-06	1	1.188760e-03	1.857600e-06	2	false	GAMG	6.244020e-03	3.075890e-05	5	true
0.000792805   	smoothSolver	1.745000e-04	4.287360e-06	1	1.189820e-03	1.854200e-06	2	false	GAMG	6.257130e-03	3.090270e-05	5	true
0.000801598   	smoothSolver	1.739690e-04	4.261360e-06	1	1.190850e-03	1.850850e-06	2	false	GAMG	6.288110e-03	3.075910e-05	5	true
0.000810401   	smoothSolver	1.734520e-04	4.235770e-06	1	1.191800e-03	1.847280e-06	2	false	GAMG	6.386260e-03	3.109580e-05	5	true
0.000819211   	smoothSolver	1.729500e-04	4.210410e-06	1	1.192960e-03	1.844110e-06	2	false	GAMG	6.295250e-03	3.095980e-05	5	true
0.000828022   	smoothSolver	1.722920e-04	4.175720e-06	1	1.192910e-03	1.834040e-06	2	false	GAMG	6.321570e-03	3.067930e-05	5	true
0.000836841   	smoothSolver	1.718140e-04	4.151590e-06	1	1.194300e-03	1.830770e-06	2	false	GAMG	6.283040e-03	3.092020e-05	5	true
0.000845669   	smoothSolver	1.713430e-04	4.128690e-06	1	1.196080e-03	1.827590e-06	2	false	GAMG	6.179800e-03	3.090710e-05	5	true
0.000854505   	smoothSolver	1.708870e-04	4.106360e-06	1	1.198130e-03	1.824310e-06	2	false	GAMG	6.087830e-03	3.080840e-05	5	true
0.000863342   	smoothSolver	1.702770e-04	4.074920e-06	1	1.198930e-03	1.814400e-06	2	false	GAMG	6.137430e-03	3.083390e-05	5	true
0.000872186   	smoothSolver	1.698400e-04	4.053660e-06	1	1.200840e-03	1.811220e-06	2	false	GAMG	6.142720e-03	3.117360e-05	5	true
0.00088104    	smoothSolver	1.694140e-04	4.032590e-06	1	1.202800e-03	1.808310e-06	2	false	GAMG	6.172810e-03	3.097520e-05	5	true
0.000889902   	smoothSolver	1.689960e-04	4.012140e-06	1	1.204610e-03	1.805250e-06	2	false	GAMG	6.180970e-03	3.133200e-05	5	true
0.000898764   	smoothSolver	1.684260e-04	3.982230e-06	1	1.205300e-03	1.795840e-06	2	false	GAMG	6.099130e-03	3.115240e-05	5	true
0.000907634   	smoothSolver	1.680260e-04	3.962620e-06	1	1.207070e-03	1.793320e-06	2	false	GAMG	6.145400e-03	3.162740e-05	5	true
0.000916514   	smoothSolver	1.676350e-04	3.943290e-06	1	1.208860e-03	1.790960e-06	2	false	GAMG	6.151780e-03	3.141740e-05	5	true
0.000925401   	smoothSolver	1.672480e-04	3.924420e-06	1	1.210520e-03	1.788660e-06	2	false	GAMG	6.216710e-03	3.194520e-05	5	true
0.000934289   	smoothSolver	1.667130e-04	3.896310e-06	1	1.211140e-03	1.780150e-06	2	false	GAMG	6.076830e-03	3.187960e-05	5	true
0.000943186   	smoothSolver	1.663460e-04	3.878200e-06	1	1.212830e-03	1.777990e-06	2	false	GAMG	6.073320e-03	3.203910e-05	5	true
0.000952092   	smoothSolver	1.659850e-04	3.860450e-06	1	1.214420e-03	1.775640e-06	2	false	GAMG	6.015140e-03	3.227440e-05	5	true
0.000960997   	smoothSolver	1.654690e-04	3.833670e-06	1	1.214810e-03	1.766760e-06	2	false	GAMG	6.167030e-03	3.221030e-05	5	true
0.000969911   	smoothSolver	1.651240e-04	3.816910e-06	1	1.216290e-03	1.764260e-06	2	false	GAMG	6.131700e-03	3.306310e-05	5	true
0.000978834   	smoothSolver	1.647840e-04	3.800360e-06	1	1.217880e-03	1.761970e-06	2	false	GAMG	5.994930e-03	3.288960e-05	5	true
0.000987766   	smoothSolver	1.644490e-04	3.784320e-06	1	1.219330e-03	1.759440e-06	2	false	GAMG	6.019320e-03	3.329030e-05	5	true
0.000996698   	smoothSolver	1.639570e-04	3.759090e-06	1	1.219560e-03	1.750340e-06	2	false	GAMG	6.011820e-03	3.349500e-05	5	true
0.00100564    	smoothSolver	1.636360e-04	3.743310e-06	1	1.221010e-03	1.747860e-06	2	false	GAMG	5.994720e-03	3.369150e-05	5	true
0.00101458    	smoothSolver	1.631530e-04	3.718490e-06	1	1.221170e-03	1.738900e-06	2	false	GAMG	6.004570e-03	3.388050e-05	5	true
0.00102353    	smoothSolver	1.628420e-04	3.702900e-06	1	1.222530e-03	1.736520e-06	2	false	GAMG	6.046040e-03	3.453270e-05	5	true
0.00103249    	smoothSolver	1.625340e-04	3.687270e-06	1	1.223970e-03	1.734110e-06	2	false	GAMG	6.264870e-03	3.423120e-05	5	true
0.00104145    	smoothSolver	1.620610e-04	3.662750e-06	1	1.224100e-03	1.724790e-06	2	false	GAMG	6.307820e-03	3.580650e-05	5	true
0.00105041    	smoothSolver	1.617730e-04	3.647280e-06	1	1.226160e-03	1.722730e-06	2	false	GAMG	6.065650e-03	3.523200e-05	5	true
0.00105939    	smoothSolver	1.614790e-04	3.632110e-06	1	1.228070e-03	1.720280e-06	2	false	GAMG	6.168080e-03	3.561640e-05	5	true
0.00106837    	smoothSolver	1.610270e-04	3.608160e-06	1	1.228700e-03	1.711280e-06	2	false	GAMG	6.147910e-03	3.609330e-05	5	true
0.00107735    	smoothSolver	1.607470e-04	3.593350e-06	1	1.230610e-03	1.708900e-06	2	false	GAMG	5.995460e-03	3.629370e-05	5	true
0.00108635    	smoothSolver	1.604640e-04	3.578780e-06	1	1.232370e-03	1.706620e-06	2	false	GAMG	6.039160e-03	3.657090e-05	5	true
0.00109534    	smoothSolver	1.600250e-04	3.555390e-06	1	1.232810e-03	1.697650e-06	2	false	GAMG	6.015410e-03	3.680300e-05	5	true
0.00110435    	smoothSolver	1.597550e-04	3.541000e-06	1	1.234470e-03	1.695180e-06	2	false	GAMG	6.016960e-03	3.723950e-05	5	true
0.00111335    	smoothSolver	1.593220e-04	3.517990e-06	1	1.234800e-03	1.686290e-06	2	false	GAMG	6.006090e-03	3.780380e-05	5	true
0.00112236    	smoothSolver	1.590590e-04	3.503960e-06	1	1.236410e-03	1.684170e-06	2	false	GAMG	5.940140e-03	3.787380e-05	5	true
0.00113138    	smoothSolver	1.587980e-04	3.490120e-06	1	1.237910e-03	1.681870e-06	2	false	GAMG	6.005310e-03	3.821450e-05	5	true
0.00114041    	smoothSolver	1.583800e-04	3.467620e-06	1	1.238100e-03	1.673040e-06	2	false	GAMG	6.014490e-03	3.883550e-05	5	true
0.00114944    	smoothSolver	1.581310e-04	3.454370e-06	1	1.239600e-03	1.670870e-06	2	false	GAMG	6.049910e-03	3.866890e-05	5	true
0.00115848    	smoothSolver	1.578770e-04	3.441840e-06	1	1.240880e-03	1.668430e-06	2	false	GAMG	6.236840e-03	3.946150e-05	5	true
0.00116752    	smoothSolver	1.574660e-04	3.420570e-06	1	1.240880e-03	1.659530e-06	2	false	GAMG	6.131440e-03	3.998810e-05	5	true
0.00117657    	smoothSolver	1.572240e-04	3.408330e-06	1	1.242310e-03	1.657360e-06	2	false	GAMG	6.124440e-03	3.976230e-05	5	true
0.00118562    	smoothSolver	1.568160e-04	3.387540e-06	1	1.242190e-03	1.648250e-06	2	false	GAMG	6.134600e-03	4.078280e-05	5	true
0.00119468    	smoothSolver	1.565810e-04	3.375450e-06	1	1.243530e-03	1.645990e-06	2	false	GAMG	5.966800e-03	4.052890e-05	5	true
0.00120374    	smoothSolver	1.563360e-04	3.363780e-06	1	1.244620e-03	1.643470e-06	2	false	GAMG	6.041960e-03	4.098200e-05	5	true
0.00121281    	smoothSolver	1.559360e-04	3.343570e-06	1	1.244450e-03	1.634510e-06	2	false	GAMG	5.962960e-03	4.103300e-05	5	true
0.00122189    	smoothSolver	1.557010e-04	3.332040e-06	1	1.245480e-03	1.631830e-06	2	false	GAMG	5.975750e-03	4.166250e-05	5	true
0.00123097    	smoothSolver	1.553040e-04	3.312180e-06	1	1.245250e-03	1.622910e-06	2	false	GAMG	5.924340e-03	4.180170e-05	5	true
0.00124005    	smoothSolver	1.550710e-04	3.300930e-06	1	1.246380e-03	1.620450e-06	2	false	GAMG	5.910080e-03	4.201790e-05	5	true
0.00124915    	smoothSolver	1.548360e-04	3.289930e-06	1	1.247590e-03	1.617950e-06	2	false	GAMG	6.016540e-03	4.232240e-05	5	true
0.00125825    	smoothSolver	1.544410e-04	3.270500e-06	1	1.247700e-03	1.608920e-06	2	false	GAMG	6.041070e-03	4.304630e-05	5	true
0.00126735    	smoothSolver	1.542150e-04	3.259550e-06	1	1.249460e-03	1.606560e-06	2	false	GAMG	5.942070e-03	4.275000e-05	5	true
0.00127646    	smoothSolver	1.538180e-04	3.240340e-06	1	1.249690e-03	1.597510e-06	2	false	GAMG	5.939560e-03	4.319420e-05	5	true
0.00128558    	smoothSolver	1.535900e-04	3.229590e-06	1	1.251250e-03	1.594980e-06	2	false	GAMG	5.921950e-03	4.331930e-05	5	true
0.00129469    	smoothSolver	1.531980e-04	3.210600e-06	1	1.251360e-03	1.585960e-06	2	false	GAMG	5.981450e-03	4.345600e-05	5	true
0.00130382    	smoothSolver	1.529670e-04	3.200140e-06	1	1.252700e-03	1.583420e-06	2	false	GAMG	5.988580e-03	4.402700e-05	5	true
0.00131295    	smoothSolver	1.527440e-04	3.189670e-06	1	1.254150e-03	1.580940e-06	2	false	GAMG	5.897820e-03	4.411560e-05	5	true
0.00132209    	smoothSolver	1.523580e-04	3.170880e-06	1	1.254170e-03	1.572020e-06	2	false	GAMG	5.867070e-03	4.415350e-05	5	true
0.00133123    	smoothSolver	1.521310e-04	3.160650e-06	1	1.255410e-03	1.569330e-06	2	false	GAMG	6.161560e-03	4.432570e-05	5	true
0.00134037    	smoothSolver	1.517370e-04	3.142080e-06	1	1.255090e-03	1.560130e-06	2	false	GAMG	6.161220e-03	4.505770e-05	5	true
0.00134953    	smoothSolver	1.515230e-04	3.131830e-06	1	1.256480e-03	1.557910e-06	2	false	GAMG	6.026510e-03	4.495610e-05	5	true
0.00135868    	smoothSolver	1.511300e-04	3.113350e-06	1	1.256080e-03	1.548760e-06	2	false	GAMG	6.115150e-03	4.478470e-05	5	true
0.00136785    	smoothSolver	1.509100e-04	3.103320e-06	1	1.257190e-03	1.546210e-06	2	false	GAMG	6.058230e-03	4.557230e-05	5	true
0.00137702    	smoothSolver	1.506830e-04	3.093240e-06	1	1.258180e-03	1.543490e-06	2	false	GAMG	5.943630e-03	4.526820e-05	5	true
0.00138619    	smoothSolver	1.502960e-04	3.075000e-06	1	1.257760e-03	1.534480e-06	2	false	GAMG	5.848630e-03	4.558020e-05	5	true
0.00139538    	smoothSolver	1.500740e-04	3.065100e-06	1	1.258640e-03	1.531730e-06	2	false	GAMG	6.006180e-03	4.576740e-05	5	true
0.00140456    	smoothSolver	1.496840e-04	3.046940e-06	1	1.257970e-03	1.522480e-06	2	false	GAMG	6.024620e-03	4.601910e-05	5	true
0.00141375    	smoothSolver	1.494680e-04	3.036940e-06	1	1.258900e-03	1.519850e-06	2	false	GAMG	5.850280e-03	4.600540e-05	5	true
0.00142294    	smoothSolver	1.490860e-04	3.018910e-06	1	1.258240e-03	1.510650e-06	2	false	GAMG	6.085490e-03	4.588770e-05	5	true
0.00143215    	smoothSolver	1.488590e-04	3.008980e-06	1	1.258730e-03	1.507390e-06	2	false	GAMG	6.191800e-03	4.670510e-05	5	true
0.00144135    	smoothSolver	1.484870e-04	2.991220e-06	1	1.258130e-03	1.498420e-06	2	false	GAMG	6.096180e-03	4.626640e-05	5	true
0.00145056    	smoothSolver	1.482690e-04	2.982060e-06	1	1.258720e-03	1.495290e-06	2	false	GAMG	6.144380e-03	4.677910e-05	5	true
0.00145978    	smoothSolver	1.478900e-04	2.965240e-06	1	1.258020e-03	1.486110e-06	2	false	GAMG	6.134650e-03	4.687130e-05	5	true
0.001469      	smoothSolver	1.476730e-04	2.956570e-06	1	1.258730e-03	1.483070e-06	2	false	GAMG	6.001510e-03	4.696160e-05	5	true
0.00147822    	smoothSolver	1.473050e-04	2.939990e-06	1	1.258310e-03	1.474080e-06	2	false	GAMG	5.854800e-03	4.668610e-05	5	true
0.00148745    	smoothSolver	1.470860e-04	2.931480e-06	1	1.259230e-03	1.471060e-06	2	false	GAMG	5.811110e-03	4.700380e-05	5	true
0.0014967     	smoothSolver	1.468700e-04	2.922950e-06	1	1.260170e-03	1.468200e-06	2	false	GAMG	5.844200e-03	4.705060e-05	5	true
0.00150594    	smoothSolver	1.464920e-04	2.906560e-06	1	1.259670e-03	1.459170e-06	2	false	GAMG	5.820050e-03	4.709630e-05	5	true
0.00151519    	smoothSolver	1.462760e-04	2.898110e-06	1	1.260530e-03	1.456280e-06	2	false	GAMG	5.826190e-03	4.728510e-05	5	true
0.00152444    	smoothSolver	1.459000e-04	2.881640e-06	1	1.259950e-03	1.447280e-06	2	false	GAMG	5.820990e-03	4.716300e-05	5	true
0.00153371    	smoothSolver	1.456800e-04	2.873370e-06	1	1.260630e-03	1.444320e-06	2	false	GAMG	5.803470e-03	4.733640e-05	5	true
0.00154297    	smoothSolver	1.453060e-04	2.857200e-06	1	1.259920e-03	1.435290e-06	2	false	GAMG	5.792690e-03	4.727900e-05	5	true
0.00155224    	smoothSolver	1.450900e-04	2.848830e-06	1	1.260520e-03	1.432260e-06	2	false	GAMG	5.927700e-03	4.729460e-05	5	true
0.00156152    	smoothSolver	1.447070e-04	2.832710e-06	1	1.259550e-03	1.423080e-06	2	false	GAMG	5.977280e-03	4.772260e-05	5	true
0.0015708     	smoothSolver	1.444960e-04	2.824430e-06	1	1.260170e-03	1.420250e-06	2	false	GAMG	5.823440e-03	4.756070e-05	5	true
0.00158008    	smoothSolver	1.441210e-04	2.808330e-06	1	1.259260e-03	1.411250e-06	2	false	GAMG	5.859130e-03	4.744020e-05	5	true
0.00158938    	smoothSolver	1.438960e-04	2.799880e-06	1	1.259510e-03	1.408090e-06	2	false	GAMG	5.894610e-03	4.757440e-05	5	true
0.00159867    	smoothSolver	1.435190e-04	2.783750e-06	1	1.258540e-03	1.398990e-06	2	false	GAMG	5.771630e-03	4.754650e-05	5	true
0.00160797    	smoothSolver	1.433030e-04	2.775550e-06	1	1.258860e-03	1.395920e-06	2	false	GAMG	5.766960e-03	4.755710e-05	5	true
0.00161728    	smoothSolver	1.429230e-04	2.759620e-06	1	1.257700e-03	1.386820e-06	2	false	GAMG	5.760040e-03	4.760810e-05	5	true
0.00162659    	smoothSolver	1.427040e-04	2.751390e-06	1	1.257960e-03	1.383660e-06	2	false	GAMG	5.755900e-03	4.770500e-05	5	true
0.00163591    	smoothSolver	1.423270e-04	2.735610e-06	1	1.256780e-03	1.374650e-06	2	false	GAMG	5.908850e-03	4.734700e-05	5	true
0.00164523    	smoothSolver	1.421030e-04	2.727650e-06	1	1.256790e-03	1.371360e-06	2	false	GAMG	5.967580e-03	4.813570e-05	5	true
0.00165456    	smoothSolver	1.417320e-04	2.712170e-06	1	1.255670e-03	1.362510e-06	2	false	GAMG	5.772620e-03	4.758970e-05	5	true
0.00166389    	smoothSolver	1.415160e-04	2.704420e-06	1	1.255830e-03	1.359270e-06	2	false	GAMG	5.714460e-03	4.765810e-05	5	true
0.00167323    	smoothSolver	1.411350e-04	2.689160e-06	1	1.254550e-03	1.350130e-06	2	false	GAMG	5.686850e-03	4.758240e-05	5	true
0.00168257    	smoothSolver	1.409160e-04	2.681420e-06	1	1.254750e-03	1.346850e-06	2	false	GAMG	5.735700e-03	4.753550e-05	5	true
0.00169192    	smoothSolver	1.405360e-04	2.666210e-06	1	1.253470e-03	1.337600e-06	2	false	GAMG	5.813240e-03	4.758700e-05	5	true
0.00170127    	smoothSolver	1.403150e-04	2.658530e-06	1	1.253740e-03	1.334260e-06	2	false	GAMG	5.791970e-03	4.790600e-05	5	true
0.00171063    	smoothSolver	1.399390e-04	2.643180e-06	1	1.252840e-03	1.325280e-06	2	false	GAMG	5.681060e-03	4.753030e-05	5	true
0.00171999    	smoothSolver	1.397220e-04	2.635410e-06	1	1.253380e-03	1.321980e-06	2	false	GAMG	5.631930e-03	4.749670e-05	5	true
0.00172936    	smoothSolver	1.393430e-04	2.620260e-06	1	1.252390e-03	1.312930e-06	2	false	GAMG	5.678110e-03	4.738510e-05	5	true
0.00173874    	smoothSolver	1.391200e-04	2.612440e-06	1	1.252750e-03	1.309620e-06	2	false	GAMG	5.645080e-03	4.739290e-05	5	true
0.00174812    	smoothSolver	1.387410e-04	2.597650e-06	1	1.251620e-03	1.300480e-06	2	false	GAMG	5.861730e-03	4.722490e-05	5	true
0.0017575     	smoothSolver	1.385130e-04	2.590530e-06	1	1.251720e-03	1.297010e-06	2	false	GAMG	5.970410e-03	4.771420e-05	5	true
0.00176689    	smoothSolver	1.381400e-04	2.576040e-06	1	1.250700e-03	1.288240e-06	2	false	GAMG	5.712250e-03	4.737840e-05	5	true
0.00177629    	smoothSolver	1.379230e-04	2.569050e-06	1	1.251010e-03	1.285050e-06	2	false	GAMG	5.804550e-03	4.722190e-05	5	true
0.00178569    	smoothSolver	1.375350e-04	2.554610e-06	1	1.249510e-03	1.275870e-06	2	false	GAMG	5.794970e-03	4.722400e-05	5	true
0.0017951     	smoothSolver	1.373270e-04	2.547540e-06	1	1.249760e-03	1.272690e-06	2	false	GAMG	5.636800e-03	4.709800e-05	5	true
0.00180451    	smoothSolver	1.369470e-04	2.533240e-06	1	1.248300e-03	1.263630e-06	2	false	GAMG	5.608910e-03	4.702520e-05	5	true
0.00181393    	smoothSolver	1.367260e-04	2.526430e-06	1	1.248250e-03	1.260260e-06	2	false	GAMG	5.593820e-03	4.700470e-05	5	true
0.00182335    	smoothSolver	1.363470e-04	2.512180e-06	1	1.246670e-03	1.251250e-06	2	false	GAMG	5.639980e-03	4.701930e-05	5	true
0.00183278    	smoothSolver	1.361280e-04	2.505240e-06	1	1.246550e-03	1.247870e-06	2	false	GAMG	5.736040e-03	4.671790e-05	5	true
0.00184221    	smoothSolver	1.357450e-04	2.491200e-06	1	1.244760e-03	1.238690e-06	2	false	GAMG	5.839600e-03	4.733390e-05	5	true
0.00185165    	smoothSolver	1.355390e-04	2.484470e-06	1	1.244800e-03	1.235600e-06	2	false	GAMG	5.561250e-03	4.673520e-05	5	true
0.00186109    	smoothSolver	1.351600e-04	2.470410e-06	1	1.243040e-03	1.226600e-06	2	false	GAMG	5.557050e-03	4.671630e-05	5	true
0.00187053    	smoothSolver	1.347840e-04	2.456390e-06	1	1.241290e-03	1.217710e-06	2	false	GAMG	5.562550e-03	4.655640e-05	5	true
0.00187999    	smoothSolver	1.345630e-04	2.449560e-06	1	1.240930e-03	1.214310e-06	2	false	GAMG	5.564580e-03	4.654560e-05	5	true
0.00188944    	smoothSolver	1.341860e-04	2.435500e-06	1	1.239070e-03	1.205370e-06	2	false	GAMG	5.575410e-03	4.631290e-05	5	true
0.0018989     	smoothSolver	1.339610e-04	2.428470e-06	1	1.238640e-03	1.201880e-06	2	false	GAMG	5.519120e-03	4.644420e-05	5	true
0.00190837    	smoothSolver	1.335850e-04	2.414490e-06	1	1.236890e-03	1.193060e-06	2	false	GAMG	5.515400e-03	4.636520e-05	5	true
0.00191784    	smoothSolver	1.333660e-04	2.407510e-06	1	1.236620e-03	1.189670e-06	2	false	GAMG	5.508970e-03	4.614430e-05	5	true
0.00192732    	smoothSolver	1.329850e-04	2.393340e-06	1	1.234810e-03	1.180790e-06	2	false	GAMG	5.581830e-03	4.599820e-05	5	true
0.0019368     	smoothSolver	1.327580e-04	2.386400e-06	1	1.234430e-03	1.177180e-06	2	false	GAMG	5.576490e-03	4.601160e-05	5	true
0.00194629    	smoothSolver	1.323820e-04	2.372450e-06	1	1.232810e-03	1.168380e-06	2	false	GAMG	5.541550e-03	4.568570e-05	5	true
0.00195578    	smoothSolver	1.320010e-04	2.358410e-06	1	1.231160e-03	1.159470e-06	2	false	GAMG	5.634270e-03	4.613740e-05	5	true
0.00196527    	smoothSolver	1.317860e-04	2.351640e-06	1	1.231120e-03	1.156120e-06	2	false	GAMG	5.445230e-03	4.551460e-05	5	true
0.00197477    	smoothSolver	1.314060e-04	2.337820e-06	1	1.229390e-03	1.147300e-06	2	false	GAMG	5.610230e-03	4.524090e-05	5	true
0.00198428    	smoothSolver	1.311750e-04	2.330890e-06	1	1.228900e-03	1.143620e-06	2	false	GAMG	5.762270e-03	4.583510e-05	5	true
0.00199379    	smoothSolver	1.308040e-04	2.317220e-06	1	1.227270e-03	1.135080e-06	2	false	GAMG	5.540520e-03	4.529180e-05	5	true
0.00200331    	smoothSolver	1.305900e-04	2.310700e-06	1	1.227010e-03	1.131740e-06	2	false	GAMG	5.390290e-03	4.514690e-05	5	true
0.00201283    	smoothSolver	1.302110e-04	2.297100e-06	1	1.225070e-03	1.123000e-06	2	false	GAMG	5.387780e-03	4.494080e-05	5	true
0.00202236    	smoothSolver	1.299900e-04	2.290380e-06	1	1.224560e-03	1.119470e-06	2	false	GAMG	5.378040e-03	4.478940e-05	5	true
0.00203189    	smoothSolver	1.296140e-04	2.276850e-06	1	1.222540e-03	1.110820e-06	2	false	GAMG	5.354510e-03	4.468460e-05	5	true
0.00204142    	smoothSolver	1.292380e-04	2.263340e-06	1	1.220480e-03	1.102170e-06	2	false	GAMG	5.403390e-03	4.468250e-05	5	true