# Field minima and maxima
# Time        	field         	min           	location(min) 	max           	location(max) 
0.00011236    	mag(U)        	0.000000e+00	(7.000970e-04 7.139805e-04 5.000000e-04)	2.183353e-01	(-1.128672e-05 -1.149643e-03 5.000000e-04)
0.00011236    	mag(U_0)      	0.000000e+00	(7.000970e-04 7.139805e-04 5.000000e-04)	1.500000e-01	(7.202230e-04 7.345054e-04 5.000000e-04)
0.00011236    	nu            	1.500000e-05	(7.202230e-04 7.345054e-04 5.000000e-04)	1.500000e-05	(7.202230e-04 7.345054e-04 5.000000e-04)
0.00011236    	p             	-1.470871e+00	(1.028647e-03 1.009888e-05 5.000000e-04)	1.825401e+00	(-1.028647e-03 1.009888e-05 5.000000e-04)
0.00011236    	yPlus         	0.000000e+00	(7.202230e-04 7.345054e-04 5.000000e-04)	0.000000e+00	(7.202230e-04 7.345054e-04 5.000000e-04)
# ===         
# Time        	field         	min           	location(min) 	max           	location(max) 
0.000203072   	mag(U)        	0.000000e+00	(7.000970e-04 7.139805e-04 5.000000e-04)	2.554463e-01	(-1.128672e-05 1.149643e-03 5.000000e-04)
0.000203072   	mag(U_0)      	0.000000e+00	(7.000970e-04 7.139805e-04 5.000000e-04)	2.183353e-01	(-1.128672e-05 -1.149643e-03 5.000000e-04)
0.000203072   	mag(force)    	0.000000e+00	(7.202230e-04 7.345054e-04 5.000000e-04)	3.624607e-08	(-9.999035e-04 9.816850e-06 5.000000e-04)
0.000203072   	mag(forceCoeff)	0.000000e+00	(7.202230e-04 7.345054e-04 5.000000e-04)	1.610936e+00	(-9.999035e-04 9.816850e-06 5.000000e-04)
0.000203072   	mag(moment)   	0.000000e+00	(7.202230e-04 7.345054e-04 5.000000e-04)	1.812304e-11	(-9.999035e-04 9.816850e-06 5.000000e-04)
0.000203072   	mag(momentCoeff)	0.000000e+00	(7.202230e-04 7.345054e-04 5.000000e-04)	3.939792e+02	(-9.999035e-04 9.816850e-06 5.000000e-04)
0.000203072   	nu            	1.500000e-05	(7.202230e-04 7.345054e-04 5.000000e-04)	1.500000e-05	(7.202230e-04 7.345054e-04 5.000000e-04)
0.000203072   	p             	-2.736052e-01	(-1.028249e-03 3.029330e-05 5.000000e-04)	1.841888e-01	(1.028647e-03 1.009888e-05 5.000000e-04)
0.000203072   	yPlus         	0.000000e+00	(7.202230e-04 7.345054e-04 5.000000e-04)	0.000000e+00	(7.202230e-04 7.345054e-04 5.000000e-04)
0.000282722   	mag(U)        	0.000000e+00	(7.000970e-04 7.139805e-04 5.000000e-04)	2.478159e-01	(-1.193573e-05 -1.215715e-03 5.000000e-04)
0.000282722   	mag(U_0)      	0.000000e+00	(7.000970e-04 7.139805e-04 5.000000e-04)	2.554463e-01	(-1.128672e-05 1.149643e-03 5.000000e-04)
0.000282722   	mag(force)    	0.000000e+00	(7.202230e-04 7.345054e-04 5.000000e-04)	5.381859e-09	(-9.960510e-04 8.823810e-05 5.000000e-04)
0.000282722   	mag(forceCoeff)	0.000000e+00	(7.202230e-04 7.345054e-04 5.000000e-04)	2.391937e-01	(-9.960510e-04 8.823810e-05 5.000000e-04)
0.000282722   	mag(moment)   	0.000000e+00	(7.202230e-04 7.345054e-04 5.000000e-04)	2.699575e-12	(-9.745680e-04 2.238770e-04 5.000000e-04)
0.000282722   	mag(momentCoeff)	0.000000e+00	(7.202230e-04 7.345054e-04 5.000000e-04)	5.868641e+01	(-9.745680e-04 2.238770e-04 5.000000e-04)
0.000282722   	nu            	1.500000e-05	(7.202230e-04 7.345054e-04 5.000000e-04)	1.500000e-05	(7.202230e-04 7.345054e-04 5.000000e-04)
0.000282722   	p             	-9.642726e-02	(1.017564e-03 1.509412e-04 5.000000e-04)	1.502696e-01	(-1.028647e-03 1.009888e-05 5.000000e-04)
0.000282722   	yPlus         	0.000000e+00	(7.202230e-04 7.345054e-04 5.000000e-04)	0.000000e+00	(7.202230e-04 7.345054e-04 5.000000e-04)
0.000366491   	mag(U)        	0.000000e+00	(7.000970e-04 7.139805e-04 5.000000e-04)	2.472901e-01	(-1.193573e-05 1.215715e-03 5.000000e-04)
0.000366491   	mag(U_0)      	0.000000e+00	(7.000970e-04 7.139805e-04 5.000000e-04)	2.478159e-01	(-1.193573e-05 -1.215715e-03 5.000000e-04)
0.000366491   	mag(force)    	0.000000e+00	(7.202230e-04 7.345054e-04 5.000000e-04)	3.040355e-09	(-9.999035e-04 9.816850e-06 5.000000e-04)
0.000366491   	mag(forceCoeff)	0.000000e+00	(7.202230e-04 7.345054e-04 5.000000e-04)	1.351269e-01	(-9.999035e-04 9.816850e-06 5.000000e-04)
0.000366491   	mag(moment)   	0.000000e+00	(7.202230e-04 7.345054e-04 5.000000e-04)	1.520294e-12	(-9.987475e-04 4.906530e-05 5.000000e-04)
0.000366491   	mag(momentCoeff)	0.000000e+00	(7.202230e-04 7.345054e-04 5.000000e-04)	3.304986e+01	(-9.987475e-04 4.906530e-05 5.000000e-04)
0.000366491   	nu            	1.500000e-05	(7.202230e-04 7.345054e-04 5.000000e-04)	1.500000e-05	(7.202230e-04 7.345054e-04 5.000000e-04)
0.000366491   	p             	-3.988714e-02	(7.380511e-04 -8.815258e-04 5.000000e-04)	4.823548e-02	(-1.149200e-03 -3.385673e-05 5.000000e-04)
0.000366491   	yPlus         	0.000000e+00	(7.202230e-04 7.345054e-04 5.000000e-04)	0.000000e+00	(7.202230e-04 7.345054e-04 5.000000e-04)
0.000452505   	mag(U)        	0.000000e+00	(7.000970e-04 7.139805e-04 5.000000e-04)	2.439596e-01	(-1.193573e-05 -1.215715e-03 5.000000e-04)
0.000452505   	mag(U_0)      	0.000000e+00	(7.000970e-04 7.139805e-04 5.000000e-04)	2.472901e-01	(-1.193573e-05 1.215715e-03 5.000000e-04)
0.000452505   	mag(force)    	0.000000e+00	(7.202230e-04 7.345054e-04 5.000000e-04)	1.024232e-09	(-2.944675e-05 9.995180e-04 5.000000e-04)
0.000452505   	mag(forceCoeff)	0.000000e+00	(7.202230e-04 7.345054e-04 5.000000e-04)	4.552143e-02	(-2.944675e-05 9.995180e-04 5.000000e-04)
0.000452505   	mag(moment)   	0.000000e+00	(7.202230e-04 7.345054e-04 5.000000e-04)	9.735127e-13	(-8.823810e-05 9.960510e-04 5.000000e-04)
0.000452505   	mag(momentCoeff)	0.000000e+00	(7.202230e-04 7.345054e-04 5.000000e-04)	2.116332e+01	(-8.823810e-05 9.960510e-04 5.000000e-04)
0.000452505   	nu            	1.500000e-05	(7.202230e-04 7.345054e-04 5.000000e-04)	1.500000e-05	(7.202230e-04 7.345054e-04 5.000000e-04)
0.000452505   	p             	-4.220194e-02	(7.202230e-04 -7.345054e-04 5.000000e-04)	6.263378e-02	(-1.028647e-03 1.009888e-05 5.000000e-04)
0.000452505   	yPlus         	0.000000e+00	(7.202230e-04 7.345054e-04 5.000000e-04)	0.000000e+00	(7.202230e-04 7.345054e-04 5.000000e-04)
0.000540096   	mag(U)        	0.000000e+00	(7.000970e-04 7.139805e-04 5.000000e-04)	2.434177e-01	(-1.262387e-05 -1.285805e-03 5.000000e-04)
0.000540096   	mag(U_0)      	0.000000e+00	(7.000970e-04 7.139805e-04 5.000000e-04)	2.439596e-01	(-1.193573e-05 -1.215715e-03 5.000000e-04)
0.000540096   	mag(force)    	0.000000e+00	(7.202230e-04 7.345054e-04 5.000000e-04)	1.271600e-09	(-9.999035e-04 9.816850e-06 5.000000e-04)
0.000540096   	mag(forceCoeff)	0.000000e+00	(7.202230e-04 7.345054e-04 5.000000e-04)	5.651555e-02	(-9.999035e-04 9.816850e-06 5.000000e-04)
0.000540096   	mag(moment)   	0.000000e+00	(7.202230e-04 7.345054e-04 5.000000e-04)	8.389519e-13	(6.866495e-05 -9.975915e-04 5.000000e-04)
0.000540096   	mag(momentCoeff)	0.000000e+00	(7.202230e-04 7.345054e-04 5.000000e-04)	1.823809e+01	(6.866495e-05 -9.975915e-04 5.000000e-04)
0.000540096   	nu            	1.500000e-05	(7.202230e-04 7.345054e-04 5.000000e-04)	1.500000e-05	(7.202230e-04 7.345054e-04 5.000000e-04)
0.000540096   	p             	-3.217327e-02	(6.480925e-04 9.496228e-04 5.000000e-04)	4.257784e-02	(-1.149643e-03 -1.128672e-05 5.000000e-04)
0.000540096   	yPlus         	0.000000e+00	(7.202230e-04 7.345054e-04 5.000000e-04)	0.000000e+00	(7.202230e-04 7.345054e-04 5.000000e-04)
0.000629341   	mag(U)        	0.000000e+00	(7.000970e-04 7.139805e-04 5.000000e-04)	2.421589e-01	(-1.262387e-05 -1.285805e-03 5.000000e-04)
0.000629341   	mag(U_0)      	0.000000e+00	(7.000970e-04 7.139805e-04 5.000000e-04)	2.434177e-01	(-1.262387e-05 -1.285805e-03 5.000000e-04)
0.000629341   	mag(force)    	0.000000e+00	(7.202230e-04 7.345054e-04 5.000000e-04)	8.357581e-10	(1.272745e-04 9.918185e-04 5.000000e-04)
0.000629341   	mag(forceCoeff)	0.000000e+00	(7.202230e-04 7.345054e-04 5.000000e-04)	3.714480e-02	(1.272745e-04 9.918185e-04 5.000000e-04)
0.000629341   	mag(moment)   	0.000000e+00	(7.202230e-04 7.345054e-04 5.000000e-04)	7.677059e-13	(-4.906530e-05 9.987475e-04 5.000000e-04)
0.000629341   	mag(momentCoeff)	0.000000e+00	(7.202230e-04 7.345054e-04 5.000000e-04)	1.668926e+01	(-4.906530e-05 9.987475e-04 5.000000e-04)
0.000629341   	nu            	1.500000e-05	(7.202230e-04 7.345054e-04 5.000000e-04)	1.500000e-05	(7.202230e-04 7.345054e-04 5.000000e-04)
0.000629341   	p             	-3.221966e-02	(5.114305e-04 -8.925567e-04 5.000000e-04)	4.388908e-02	(-1.028647e-03 1.009888e-05 5.000000e-04)
0.000629341   	yPlus         	0.000000e+00	(7.202230e-04 7.345054e-04 5.000000e-04)	0.000000e+00	(7.202230e-04 7.345054e-04 5.000000e-04)
0.000720318   	mag(U)        	0.000000e+00	(7.000970e-04 7.139805e-04 5.000000e-04)	2.405868e-01	(-1.262387e-05 -1.285805e-03 5.000000e-04)
0.000720318   	mag(U_0)      	0.000000e+00	(7.000970e-04 7.139805e-04 5.000000e-04)	2.421589e-01	(-1.262387e-05 -1.285805e-03 5.000000e-04)
0.000720318   	mag(force)    	0.000000e+00	(7.202230e-04 7.345054e-04 5.000000e-04)	8.890154e-10	(-9.999035e-04 9.816850e-06 5.000000e-04)
0.000720318   	mag(forceCoeff)	0.000000e+00	(7.202230e-04 7.345054e-04 5.000000e-04)	3.951179e-02	(-9.999035e-04 9.816850e-06 5.000000e-04)
0.000720318   	mag(moment)   	0.000000e+00	(7.202230e-04 7.345054e-04 5.000000e-04)	7.022943e-13	(9.816850e-06 -9.999035e-04 5.000000e-04)
0.000720318   	mag(momentCoeff)	0.000000e+00	(7.202230e-04 7.345054e-04 5.000000e-04)	1.526727e+01	(9.816850e-06 -9.999035e-04 5.000000e-04)
0.000720318   	nu            	1.500000e-05	(7.202230e-04 7.345054e-04 5.000000e-04)	1.500000e-05	(7.202230e-04 7.345054e-04 5.000000e-04)
0.000720318   	p             	-2.961130e-02	(4.649290e-04 9.830093e-04 5.000000e-04)	3.472538e-02	(-1.087360e-03 -1.067582e-05 5.000000e-04)
0.000720318   	yPlus         	0.000000e+00	(7.202230e-04 7.345054e-04 5.000000e-04)	0.000000e+00	(7.202230e-04 7.345054e-04 5.000000e-04)
0.000813115   	mag(U)        	0.000000e+00	(7.000970e-04 7.139805e-04 5.000000e-04)	2.385678e-01	(-1.262387e-05 -1.285805e-03 5.000000e-04)
0.000813115   	mag(U_0)      	0.000000e+00	(7.000970e-04 7.139805e-04 5.000000e-04)	2.405868e-01	(-1.262387e-05 -1.285805e-03 5.000000e-04)
0.000813115   	mag(force)    	0.000000e+00	(7.202230e-04 7.345054e-04 5.000000e-04)	7.587579e-10	(1.854430e-04 9.826060e-04 5.000000e-04)
0.000813115   	mag(forceCoeff)	0.000000e+00	(7.202230e-04 7.345054e-04 5.000000e-04)	3.372257e-02	(1.854430e-04 9.826060e-04 5.000000e-04)
0.000813115   	mag(moment)   	0.000000e+00	(7.202230e-04 7.345054e-04 5.000000e-04)	6.613335e-13	(-2.944675e-05 9.995180e-04 5.000000e-04)
0.000813115   	mag(momentCoeff)	0.000000e+00	(7.202230e-04 7.345054e-04 5.000000e-04)	1.437682e+01	(-2.944675e-05 9.995180e-04 5.000000e-04)
0.000813115   	nu            	1.500000e-05	(7.202230e-04 7.345054e-04 5.000000e-04)	1.500000e-05	(7.202230e-04 7.345054e-04 5.000000e-04)
0.000813115   	p             	-2.945583e-02	(4.214822e-04 -9.383878e-04 5.000000e-04)	3.691848e-02	(-1.028647e-03 1.009888e-05 5.000000e-04)
0.000813115   	yPlus         	0.000000e+00	(7.202230e-04 7.345054e-04 5.000000e-04)	0.000000e+00	(7.202230e-04 7.345054e-04 5.000000e-04)
0.000907825   	mag(U)        	0.000000e+00	(7.000970e-04 7.139805e-04 5.000000e-04)	2.378924e-01	(1.335357e-05 -1.360154e-03 5.000000e-04)
0.000907825   	mag(U_0)      	0.000000e+00	(7.000970e-04 7.139805e-04 5.000000e-04)	2.385678e-01	(-1.262387e-05 -1.285805e-03 5.000000e-04)
0.000907825   	mag(force)    	0.000000e+00	(7.202230e-04 7.345054e-04 5.000000e-04)	7.462526e-10	(-9.999035e-04 9.816850e-06 5.000000e-04)
0.000907825   	mag(forceCoeff)	0.000000e+00	(7.202230e-04 7.345054e-04 5.000000e-04)	3.316678e-02	(-9.999035e-04 9.816850e-06 5.000000e-04)
0.000907825   	mag(moment)   	0.000000e+00	(7.202230e-04 7.345054e-04 5.000000e-04)	6.215134e-13	(-9.816850e-06 -9.999035e-04 5.000000e-04)
0.000907825   	mag(momentCoeff)	0.000000e+00	(7.202230e-04 7.345054e-04 5.000000e-04)	1.351116e+01	(-9.816850e-06 -9.999035e-04 5.000000e-04)
0.000907825   	nu            	1.500000e-05	(7.202230e-04 7.345054e-04 5.000000e-04)	1.500000e-05	(7.202230e-04 7.345054e-04 5.000000e-04)
0.000907825   	p             	-2.758353e-02	(3.274745e-04 9.751829e-04 5.000000e-04)	3.196079e-02	(-1.087360e-03 -1.067582e-05 5.000000e-04)
0.000907825   	yPlus         	0.000000e+00	(7.202230e-04 7.345054e-04 5.000000e-04)	0.000000e+00	(7.202230e-04 7.345054e-04 5.000000e-04)
0.00100353    	mag(U)        	0.000000e+00	(7.000970e-04 7.139805e-04 5.000000e-04)	2.371148e-01	(1.335357e-05 -1.360154e-03 5.000000e-04)
0.00100353    	mag(U_0)      	0.000000e+00	(7.000970e-04 7.139805e-04 5.000000e-04)	2.378924e-01	(1.335357e-05 -1.360154e-03 5.000000e-04)
0.00100353    	mag(force)    	0.000000e+00	(7.202230e-04 7.345054e-04 5.000000e-04)	7.043499e-10	(1.854430e-04 9.826060e-04 5.000000e-04)
0.00100353    	mag(forceCoeff)	0.000000e+00	(7.202230e-04 7.345054e-04 5.000000e-04)	3.130444e-02	(1.854430e-04 9.826060e-04 5.000000e-04)
0.00100353    	mag(moment)   	0.000000e+00	(7.202230e-04 7.345054e-04 5.000000e-04)	5.945160e-13	(-4.906530e-05 9.987475e-04 5.000000e-04)
0.00100353    	mag(momentCoeff)	0.000000e+00	(7.202230e-04 7.345054e-04 5.000000e-04)	1.292426e+01	(-4.906530e-05 9.987475e-04 5.000000e-04)
0.00100353    	nu            	1.500000e-05	(7.202230e-04 7.345054e-04 5.000000e-04)	1.500000e-05	(7.202230e-04 7.345054e-04 5.000000e-04)
0.00100353    	p             	-2.794291e-02	(3.843159e-04 -9.542118e-04 5.000000e-04)	3.275387e-02	(-1.028647e-03 1.009888e-05 5.000000e-04)
0.00100353    	yPlus         	0.000000e+00	(7.202230e-04 7.345054e-04 5.000000e-04)	0.000000e+00	(7.202230e-04 7.345054e-04 5.000000e-04)
0.00110027    	mag(U)        	0.000000e+00	(7.000970e-04 7.139805e-04 5.000000e-04)	2.361393e-01	(-1.335357e-05 -1.360154e-03 5.000000e-04)
0.00110027    	mag(U_0)      	0.000000e+00	(7.000970e-04 7.139805e-04 5.000000e-04)	2.371148e-01	(1.335357e-05 -1.360154e-03 5.000000e-04)
0.00110027    	mag(force)    	0.000000e+00	(7.202230e-04 7.345054e-04 5.000000e-04)	6.887405e-10	(2.429685e-04 -9.699845e-04 5.000000e-04)
0.00110027    	mag(forceCoeff)	0.000000e+00	(7.202230e-04 7.345054e-04 5.000000e-04)	3.061069e-02	(2.429685e-04 -9.699845e-04 5.000000e-04)
0.00110027    	mag(moment)   	0.000000e+00	(7.202230e-04 7.345054e-04 5.000000e-04)	5.666680e-13	(-2.944675e-05 -9.995180e-04 5.000000e-04)
0.00110027    	mag(momentCoeff)	0.000000e+00	(7.202230e-04 7.345054e-04 5.000000e-04)	1.231887e+01	(-2.944675e-05 -9.995180e-04 5.000000e-04)
0.00110027    	nu            	1.500000e-05	(7.202230e-04 7.345054e-04 5.000000e-04)	1.500000e-05	(7.202230e-04 7.345054e-04 5.000000e-04)
0.00110027    	p             	-2.685011e-02	(3.274745e-04 9.751829e-04 5.000000e-04)	2.989231e-02	(-1.028647e-03 -1.009888e-05 5.000000e-04)
0.00110027    	yPlus         	0.000000e+00	(7.202230e-04 7.345054e-04 5.000000e-04)	0.000000e+00	(7.202230e-04 7.345054e-04 5.000000e-04)
0.00119807    	mag(U)        	0.000000e+00	(7.000970e-04 7.139805e-04 5.000000e-04)	2.349823e-01	(-1.335357e-05 -1.360154e-03 5.000000e-04)
0.00119807    	mag(U_0)      	0.000000e+00	(7.000970e-04 7.139805e-04 5.000000e-04)	2.361393e-01	(-1.335357e-05 -1.360154e-03 5.000000e-04)
0.00119807    	mag(force)    	0.000000e+00	(7.202230e-04 7.345054e-04 5.000000e-04)	6.662266e-10	(1.854430e-04 9.826060e-04 5.000000e-04)
0.00119807    	mag(forceCoeff)	0.000000e+00	(7.202230e-04 7.345054e-04 5.000000e-04)	2.961007e-02	(1.854430e-04 9.826060e-04 5.000000e-04)
0.00119807    	mag(moment)   	0.000000e+00	(7.202230e-04 7.345054e-04 5.000000e-04)	5.476197e-13	(-4.906530e-05 9.987475e-04 5.000000e-04)
0.00119807    	mag(momentCoeff)	0.000000e+00	(7.202230e-04 7.345054e-04 5.000000e-04)	1.190478e+01	(-4.906530e-05 9.987475e-04 5.000000e-04)
0.00119807    	nu            	1.500000e-05	(7.202230e-04 7.345054e-04 5.000000e-04)	1.500000e-05	(7.202230e-04 7.345054e-04 5.000000e-04)
0.00119807    	p             	-2.686181e-02	(3.465578e-04 -9.685640e-04 5.000000e-04)	3.028376e-02	(-1.028647e-03 1.009888e-05 5.000000e-04)
0.00119807    	yPlus         	0.000000e+00	(7.202230e-04 7.345054e-04 5.000000e-04)	0.000000e+00	(7.202230e-04 7.345054e-04 5.000000e-04)
0.00129697    	mag(U)        	0.000000e+00	(7.000970e-04 7.139805e-04 5.000000e-04)	2.336799e-01	(-1.335357e-05 -1.360154e-03 5.000000e-04)
0.00129697    	mag(U_0)      	0.000000e+00	(7.000970e-04 7.139805e-04 5.000000e-04)	2.349823e-01	(-1.335357e-05 -1.360154e-03 5.000000e-04)
0.00129697    	mag(force)    	0.000000e+00	(7.202230e-04 7.345054e-04 5.000000e-04)	6.523392e-10	(2.238770e-04 -9.745680e-04 5.000000e-04)
0.00129697    	mag(forceCoeff)	0.000000e+00	(7.202230e-04 7.345054e-04 5.000000e-04)	2.899285e-02	(2.238770e-04 -9.745680e-04 5.000000e-04)
0.00129697    	mag(moment)   	0.000000e+00	(7.202230e-04 7.345054e-04 5.000000e-04)	5.269088e-13	(-4.906530e-05 -9.987475e-04 5.000000e-04)
0.00129697    	mag(momentCoeff)	0.000000e+00	(7.202230e-04 7.345054e-04 5.000000e-04)	1.145454e+01	(-4.906530e-05 -9.987475e-04 5.000000e-04)
0.00129697    	nu            	1.500000e-05	(7.202230e-04 7.345054e-04 5.000000e-04)	1.500000e-05	(7.202230e-04 7.345054e-04 5.000000e-04)
0.00129697    	p             	-2.624250e-02	(3.082650e-04 9.814252e-04 5.000000e-04)	2.866725e-02	(-1.028647e-03 -1.009888e-05 5.000000e-04)
0.00129697    	yPlus         	0.000000e+00	(7.202230e-04 7.345054e-04 5.000000e-04)	0.000000e+00	(7.202230e-04 7.345054e-04 5.000000e-04)
0.001397      	mag(U)        	0.000000e+00	(7.000970e-04 7.139805e-04 5.000000e-04)	2.327545e-01	(1.412826e-05 -1.439029e-03 5.000000e-04)
0.001397      	mag(U_0)      	0.000000e+00	(7.000970e-04 7.139805e-04 5.000000e-04)	2.336799e-01	(-1.335357e-05 -1.360154e-03 5.000000e-04)
0.001397      	mag(force)    	0.000000e+00	(7.202230e-04 7.345054e-04 5.000000e-04)	6.371187e-10	(1.854430e-04 9.826060e-04 5.000000e-04)
0.001397      	mag(forceCoeff)	0.000000e+00	(7.202230e-04 7.345054e-04 5.000000e-04)	2.831639e-02	(1.854430e-04 9.826060e-04 5.000000e-04)
0.001397      	mag(moment)   	0.000000e+00	(7.202230e-04 7.345054e-04 5.000000e-04)	5.121999e-13	(-4.906530e-05 9.987475e-04 5.000000e-04)
0.001397      	mag(momentCoeff)	0.000000e+00	(7.202230e-04 7.345054e-04 5.000000e-04)	1.113478e+01	(-4.906530e-05 9.987475e-04 5.000000e-04)
0.001397      	nu            	1.500000e-05	(7.202230e-04 7.345054e-04 5.000000e-04)	1.500000e-05	(7.202230e-04 7.345054e-04 5.000000e-04)
0.001397      	p             	-2.608817e-02	(3.274745e-04 -9.751829e-04 5.000000e-04)	2.836854e-02	(-1.028647e-03 1.009888e-05 5.000000e-04)
0.001397      	yPlus         	0.000000e+00	(7.202230e-04 7.345054e-04 5.000000e-04)	0.000000e+00	(7.202230e-04 7.345054e-04 5.000000e-04)
0.00149821    	mag(U)        	0.000000e+00	(7.000970e-04 7.139805e-04 5.000000e-04)	2.322372e-01	(1.412826e-05 -1.439029e-03 5.000000e-04)
0.00149821    	mag(U_0)      	0.000000e+00	(7.000970e-04 7.139805e-04 5.000000e-04)	2.327545e-01	(1.412826e-05 -1.439029e-03 5.000000e-04)
0.00149821    	mag(force)    	0.000000e+00	(7.202230e-04 7.345054e-04 5.000000e-04)	6.248767e-10	(2.046995e-04 -9.787755e-04 5.000000e-04)
0.00149821    	mag(forceCoeff)	0.000000e+00	(7.202230e-04 7.345054e-04 5.000000e-04)	2.777230e-02	(2.046995e-04 -9.787755e-04 5.000000e-04)
0.00149821    	mag(moment)   	0.000000e+00	(7.202230e-04 7.345054e-04 5.000000e-04)	4.963861e-13	(-4.906530e-05 -9.987475e-04 5.000000e-04)
0.00149821    	mag(momentCoeff)	0.000000e+00	(7.202230e-04 7.345054e-04 5.000000e-04)	1.079100e+01	(-4.906530e-05 -9.987475e-04 5.000000e-04)
0.00149821    	nu            	1.500000e-05	(7.202230e-04 7.345054e-04 5.000000e-04)	1.500000e-05	(7.202230e-04 7.345054e-04 5.000000e-04)
0.00149821    	p             	-2.568955e-02	(3.082650e-04 9.814252e-04 5.000000e-04)	2.743397e-02	(-1.028647e-03 -1.009888e-05 5.000000e-04)
0.00149821    	yPlus         	0.000000e+00	(7.202230e-04 7.345054e-04 5.000000e-04)	0.000000e+00	(7.202230e-04 7.345054e-04 5.000000e-04)
0.00160064    	mag(U)        	0.000000e+00	(7.000970e-04 7.139805e-04 5.000000e-04)	2.316126e-01	(1.412826e-05 -1.439029e-03 5.000000e-04)
0.00160064    	mag(U_0)      	0.000000e+00	(7.000970e-04 7.139805e-04 5.000000e-04)	2.322372e-01	(1.412826e-05 -1.439029e-03 5.000000e-04)
0.00160064    	mag(force)    	0.000000e+00	(7.202230e-04 7.345054e-04 5.000000e-04)	6.135498e-10	(1.854430e-04 9.826060e-04 5.000000e-04)
0.00160064    	mag(forceCoeff)	0.000000e+00	(7.202230e-04 7.345054e-04 5.000000e-04)	2.726888e-02	(1.854430e-04 9.826060e-04 5.000000e-04)
0.00160064    	mag(moment)   	0.000000e+00	(7.202230e-04 7.345054e-04 5.000000e-04)	4.844293e-13	(-6.866495e-05 9.975915e-04 5.000000e-04)
0.00160064    	mag(momentCoeff)	0.000000e+00	(7.202230e-04 7.345054e-04 5.000000e-04)	1.053107e+01	(-6.866495e-05 9.975915e-04 5.000000e-04)
0.00160064    	nu            	1.500000e-05	(7.202230e-04 7.345054e-04 5.000000e-04)	1.500000e-05	(7.202230e-04 7.345054e-04 5.000000e-04)
0.00160064    	p             	-2.549976e-02	(3.082650e-04 -9.814252e-04 5.000000e-04)	2.688841e-02	(-1.028647e-03 -1.009888e-05 5.000000e-04)
0.00160064    	yPlus         	0.000000e+00	(7.202230e-04 7.345054e-04 5.000000e-04)	0.000000e+00	(7.202230e-04 7.345054e-04 5.000000e-04)
0.00170434    	mag(U)        	0.000000e+00	(7.000970e-04 7.139805e-04 5.000000e-04)	2.308891e-01	(1.412826e-05 -1.439029e-03 5.000000e-04)
0.00170434    	mag(U_0)      	0.000000e+00	(7.000970e-04 7.139805e-04 5.000000e-04)	2.316126e-01	(1.412826e-05 -1.439029e-03 5.000000e-04)
0.00170434    	mag(force)    	0.000000e+00	(7.202230e-04 7.345054e-04 5.000000e-04)	6.035216e-10	(1.854430e-04 -9.826060e-04 5.000000e-04)
0.00170434    	mag(forceCoeff)	0.000000e+00	(7.202230e-04 7.345054e-04 5.000000e-04)	2.682318e-02	(1.854430e-04 -9.826060e-04 5.000000e-04)
0.00170434    	mag(moment)   	0.000000e+00	(7.202230e-04 7.345054e-04 5.000000e-04)	4.723079e-13	(-6.866495e-05 -9.975915e-04 5.000000e-04)
0.00170434    	mag(momentCoeff)	0.000000e+00	(7.202230e-04 7.345054e-04 5.000000e-04)	1.026756e+01	(-6.866495e-05 -9.975915e-04 5.000000e-04)
0.00170434    	nu            	1.500000e-05	(7.202230e-04 7.345054e-04 5.000000e-04)	1.500000e-05	(7.202230e-04 7.345054e-04 5.000000e-04)
0.00170434    	p             	-2.519737e-02	(2.889366e-04 -9.872886e-04 5.000000e-04)	2.620585e-02	(-1.028647e-03 -1.009888e-05 5.000000e-04)
0.00170434    	yPlus         	0.000000e+00	(7.202230e-04 7.345054e-04 5.000000e-04)	0.000000e+00	(7.202230e-04 7.345054e-04 5.000000e-04)
0.00180935    	mag(U)        	0.000000e+00	(7.000970e-04 7.139805e-04 5.000000e-04)	2.300937e-01	(-1.412826e-05 -1.439029e-03 5.000000e-04)
0.00180935    	mag(U_0)      	0.000000e+00	(7.000970e-04 7.139805e-04 5.000000e-04)	2.308891e-01	(1.412826e-05 -1.439029e-03 5.000000e-04)
0.00180935    	mag(force)    	0.000000e+00	(7.202230e-04 7.345054e-04 5.000000e-04)	5.944491e-10	(1.854430e-04 -9.826060e-04 5.000000e-04)
0.00180935    	mag(forceCoeff)	0.000000e+00	(7.202230e-04 7.345054e-04 5.000000e-04)	2.641996e-02	(1.854430e-04 -9.826060e-04 5.000000e-04)
0.00180935    	mag(moment)   	0.000000e+00	(7.202230e-04 7.345054e-04 5.000000e-04)	4.626275e-13	(-8.823810e-05 -9.960510e-04 5.000000e-04)
0.00180935    	mag(momentCoeff)	0.000000e+00	(7.202230e-04 7.345054e-04 5.000000e-04)	1.005712e+01	(-8.823810e-05 -9.960510e-04 5.000000e-04)
0.00180935    	nu            	1.500000e-05	(7.202230e-04 7.345054e-04 5.000000e-04)	1.500000e-05	(7.202230e-04 7.345054e-04 5.000000e-04)
0.00180935    	p             	-2.499919e-02	(2.889366e-04 -9.872886e-04 5.000000e-04)	2.580637e-02	(-1.028647e-03 -1.009888e-05 5.000000e-04)
0.00180935    	yPlus         	0.000000e+00	(7.202230e-04 7.345054e-04 5.000000e-04)	0.000000e+00	(7.202230e-04 7.345054e-04 5.000000e-04)
0.00191436    	mag(U)        	0.000000e+00	(7.000970e-04 7.139805e-04 5.000000e-04)	2.292389e-01	(-1.412826e-05 -1.439029e-03 5.000000e-04)
0.00191436    	mag(U_0)      	0.000000e+00	(7.000970e-04 7.139805e-04 5.000000e-04)	2.300937e-01	(-1.412826e-05 -1.439029e-03 5.000000e-04)
0.00191436    	mag(force)    	0.000000e+00	(7.202230e-04 7.345054e-04 5.000000e-04)	5.856618e-10	(1.854430e-04 -9.826060e-04 5.000000e-04)
0.00191436    	mag(forceCoeff)	0.000000e+00	(7.202230e-04 7.345054e-04 5.000000e-04)	2.602941e-02	(1.854430e-04 -9.826060e-04 5.000000e-04)
0.00191436    	mag(moment)   	0.000000e+00	(7.202230e-04 7.345054e-04 5.000000e-04)	4.524878e-13	(-8.823810e-05 -9.960510e-04 5.000000e-04)
0.00191436    	mag(momentCoeff)	0.000000e+00	(7.202230e-04 7.345054e-04 5.000000e-04)	9.836692e+00	(-8.823810e-05 -9.960510e-04 5.000000e-04)
0.00191436    	nu            	1.500000e-05	(7.202230e-04 7.345054e-04 5.000000e-04)	1.500000e-05	(7.202230e-04 7.345054e-04 5.000000e-04)
0.00191436    	p             	-2.476730e-02	(2.889366e-04 -9.872886e-04 5.000000e-04)	2.527750e-02	(-1.028647e-03 -1.009888e-05 5.000000e-04)
0.00191436    	yPlus         	0.000000e+00	(7.202230e-04 7.345054e-04 5.000000e-04)	0.000000e+00	(7.202230e-04 7.345054e-04 5.000000e-04)
0.00202075    	mag(U)        	0.000000e+00	(7.000970e-04 7.139805e-04 5.000000e-04)	2.283222e-01	(-1.412826e-05 -1.439029e-03 5.000000e-04)
0.00202075    	mag(U_0)      	0.000000e+00	(7.000970e-04 7.139805e-04 5.000000e-04)	2.292389e-01	(-1.412826e-05 -1.439029e-03 5.000000e-04)
0.00202075    	mag(force)    	0.000000e+00	(7.202230e-04 7.345054e-04 5.000000e-04)	5.780885e-10	(1.854430e-04 -9.826060e-04 5.000000e-04)
0.00202075    	mag(forceCoeff)	0.000000e+00	(7.202230e-04 7.345054e-04 5.000000e-04)	2.569282e-02	(1.854430e-04 -9.826060e-04 5.000000e-04)
0.00202075    	mag(moment)   	0.000000e+00	(7.202230e-04 7.345054e-04 5.000000e-04)	4.443214e-13	(-8.823810e-05 -9.960510e-04 5.000000e-04)
0.00202075    	mag(momentCoeff)	0.000000e+00	(7.202230e-04 7.345054e-04 5.000000e-04)	9.659160e+00	(-8.823810e-05 -9.960510e-04 5.000000e-04)
0.00202075    	nu            	1.500000e-05	(7.202230e-04 7.345054e-04 5.000000e-04)	1.500000e-05	(7.202230e-04 7.345054e-04 5.000000e-04)
0.00202075    	p             	-2.457562e-02	(2.889366e-04 -9.872886e-04 5.000000e-04)	2.489528e-02	(-1.028647e-03 -1.009888e-05 5.000000e-04)
0.00202075    	yPlus         	0.000000e+00	(7.202230e-04 7.345054e-04 5.000000e-04)	0.000000e+00	(7.202230e-04 7.345054e-04 5.000000e-04)
0.00212857    	mag(U)        	0.000000e+00	(7.000970e-04 7.139805e-04 5.000000e-04)	2.275831e-01	(1.494946e-05 -1.522701e-03 5.000000e-04)
0.00212857    	mag(U_0)      	0.000000e+00	(7.000970e-04 7.139805e-04 5.000000e-04)	2.283222e-01	(-1.412826e-05 -1.439029e-03 5.000000e-04)
0.00212857    	mag(force)    	0.000000e+00	(7.202230e-04 7.345054e-04 5.000000e-04)	5.705152e-10	(1.854430e-04 -9.826060e-04 5.000000e-04)
0.00212857    	mag(forceCoeff)	0.000000e+00	(7.202230e-04 7.345054e-04 5.000000e-04)	2.535623e-02	(1.854430e-04 -9.826060e-04 5.000000e-04)
0.00212857    	mag(moment)   	0.000000e+00	(7.202230e-04 7.345054e-04 5.000000e-04)	4.358819e-13	(-8.823810e-05 -9.960510e-04 5.000000e-04)
0.00212857    	mag(momentCoeff)	0.000000e+00	(7.202230e-04 7.345054e-04 5.000000e-04)	9.475693e+00	(-8.823810e-05 -9.960510e-04 5.000000e-04)
0.00212857    	nu            	1.500000e-05	(7.202230e-04 7.345054e-04 5.000000e-04)	1.500000e-05	(7.202230e-04 7.345054e-04 5.000000e-04)
0.00212857    	p             	-2.437803e-02	(2.694970e-04 -9.927694e-04 5.000000e-04)	2.445819e-02	(-1.028647e-03 -1.009888e-05 5.000000e-04)
0.00212857    	yPlus         	0.000000e+00	(7.202230e-04 7.345054e-04 5.000000e-04)	0.000000e+00	(7.202230e-04 7.345054e-04 5.000000e-04)
0.0022364     	mag(U)        	0.000000e+00	(7.000970e-04 7.139805e-04 5.000000e-04)	2.271850e-01	(1.494946e-05 -1.522701e-03 5.000000e-04)
0.0022364     	mag(U_0)      	0.000000e+00	(7.000970e-04 7.139805e-04 5.000000e-04)	2.275831e-01	(1.494946e-05 -1.522701e-03 5.000000e-04)
0.0022364     	mag(force)    	0.000000e+00	(7.202230e-04 7.345054e-04 5.000000e-04)	5.640164e-10	(1.661150e-04 -9.860575e-04 5.000000e-04)
0.0022364     	mag(forceCoeff)	0.000000e+00	(7.202230e-04 7.345054e-04 5.000000e-04)	2.506739e-02	(1.661150e-04 -9.860575e-04 5.000000e-04)
0.0022364     	mag(moment)   	0.000000e+00	(7.202230e-04 7.345054e-04 5.000000e-04)	4.287562e-13	(-8.823810e-05 -9.960510e-04 5.000000e-04)
0.0022364     	mag(momentCoeff)	0.000000e+00	(7.202230e-04 7.345054e-04 5.000000e-04)	9.320788e+00	(-8.823810e-05 -9.960510e-04 5.000000e-04)
0.0022364     	nu            	1.500000e-05	(7.202230e-04 7.345054e-04 5.000000e-04)	1.500000e-05	(7.202230e-04 7.345054e-04 5.000000e-04)
0.0022364     	p             	-2.419790e-02	(2.694970e-04 -9.927694e-04 5.000000e-04)	2.412849e-02	(-1.028647e-03 -1.009888e-05 5.000000e-04)
0.0022364     	yPlus         	0.000000e+00	(7.202230e-04 7.345054e-04 5.000000e-04)	0.000000e+00	(7.202230e-04 7.345054e-04 5.000000e-04)
0.00234575    	mag(U)        	0.000000e+00	(7.000970e-04 7.139805e-04 5.000000e-04)	2.267322e-01	(1.494946e-05 -1.522701e-03 5.000000e-04)
0.00234575    	mag(U_0)      	0.000000e+00	(7.000970e-04 7.139805e-04 5.000000e-04)	2.271850e-01	(1.494946e-05 -1.522701e-03 5.000000e-04)
0.00234575    	mag(force)    	0.000000e+00	(7.202230e-04 7.345054e-04 5.000000e-04)	5.573714e-10	(1.661150e-04 -9.860575e-04 5.000000e-04)
0.00234575    	mag(forceCoeff)	0.000000e+00	(7.202230e-04 7.345054e-04 5.000000e-04)	2.477206e-02	(1.661150e-04 -9.860575e-04 5.000000e-04)
0.00234575    	mag(moment)   	0.000000e+00	(7.202230e-04 7.345054e-04 5.000000e-04)	4.215700e-13	(-1.077770e-04 -9.941265e-04 5.000000e-04)
0.00234575    	mag(momentCoeff)	0.000000e+00	(7.202230e-04 7.345054e-04 5.000000e-04)	9.164565e+00	(-1.077770e-04 -9.941265e-04 5.000000e-04)
0.00234575    	nu            	1.500000e-05	(7.202230e-04 7.345054e-04 5.000000e-04)	1.500000e-05	(7.202230e-04 7.345054e-04 5.000000e-04)
0.00234575    	p             	-2.402978e-02	(2.694970e-04 -9.927694e-04 5.000000e-04)	2.376033e-02	(-1.028647e-03 -1.009888e-05 5.000000e-04)
0.00234575    	yPlus         	0.000000e+00	(7.202230e-04 7.345054e-04 5.000000e-04)	0.000000e+00	(7.202230e-04 7.345054e-04 5.000000e-04)
0.00245509    	mag(U)        	0.000000e+00	(7.000970e-04 7.139805e-04 5.000000e-04)	2.262362e-01	(1.494946e-05 -1.522701e-03 5.000000e-04)