# Probe 0 (-0.01 0 0)  # Not Found
# Probe 1 (-0.01 0.0009 0)  # Not Found
# Probe 2 (-0.0098 0.0017 0)  # Not Found
# Probe 3 (-0.0097 0.0026 0)  # Not Found
# Probe 4 (-0.0094 0.0034 0)  # Not Found
# Probe 5 (-0.0091 0.0042 0)  # Not Found
# Probe 6 (-0.0087 0.005 0)  # Not Found
# Probe 7 (-0.0082 0.0057 0)  # Not Found
# Probe 8 (-0.0077 0.0064 0)  # Not Found
# Probe 9 (-0.0071 0.0071 0)  # Not Found
# Probe 10 (-0.0064 0.0077 0)  # Not Found
# Probe 11 (-0.0057 0.0082 0)  # Not Found
# Probe 12 (-0.005 0.0087 0)  # Not Found
# Probe 13 (-0.0042 0.0091 0)  # Not Found
# Probe 14 (-0.0034 0.0094 0)  # Not Found
# Probe 15 (-0.0026 0.0097 0)  # Not Found
# Probe 16 (-0.0017 0.0098 0)  # Not Found
# Probe 17 (-0.0009 0.01 0)  # Not Found
# Probe 18 (0 0.01 0)  # Not Found
# Probe 19 (0.0009 0.01 0)  # Not Found
# Probe 20 (0.0017 0.0098 0)  # Not Found
# Probe 21 (0.0026 0.0097 0)  # Not Found
# Probe 22 (0.0034 0.0094 0)  # Not Found
# Probe 23 (0.0042 0.0091 0)  # Not Found
# Probe 24 (0.005 0.0087 0)  # Not Found
# Probe 25 (0.0057 0.0082 0)  # Not Found
# Probe 26 (0.0064 0.0077 0)  # Not Found
# Probe 27 (0.0071 0.0071 0)  # Not Found
# Probe 28 (0.0077 0.0064 0)  # Not Found
# Probe 29 (0.0082 0.0057 0)  # Not Found
# Probe 30 (0.0087 0.005 0)  # Not Found
# Probe 31 (0.0091 0.0042 0)  # Not Found
# Probe 32 (0.0094 0.0034 0)  # Not Found
# Probe 33 (0.0097 0.0026 0)  # Not Found
# Probe 34 (0.0098 0.0017 0)
# Probe 35 (0.01 0.0009 0)
# Probe 36 (0.01 0 0)
# Time        0             1             2             3             4             5             6             7             8             9             10            11            12            13            14            15            16            17            18            19            20            21            22            23            24            25            26            27            28            29            30            31            32            33            34            35            36           
0.0005        (-1e+300 -1e+300 -1e+300) (-1e+300 -1e+300 -1e+300) (-1e+300 -1e+300 -1e+300) (-1e+300 -1e+300 -1e+300) (-1e+300 -1e+300 -1e+300) (-1e+300 -1e+300 -1e+300) (-1e+300 -1e+300 -1e+300) (-1e+300 -1e+300 -1e+300) (-1e+300 -1e+300 -1e+300) (-1e+300 -1e+300 -1e+300) (-1e+300 -1e+300 -1e+300) (-1e+300 -1e+300 -1e+300) (-1e+300 -1e+300 -1e+300) (-1e+300 -1e+300 -1e+300) (-1e+300 -1e+300 -1e+300) (-1e+300 -1e+300 -1e+300) (-1e+300 -1e+300 -1e+300) (-1e+300 -1e+300 -1e+300) (-1e+300 -1e+300 -1e+300) (-1e+300 -1e+300 -1e+300) (-1e+300 -1e+300 -1e+300) (-1e+300 -1e+300 -1e+300) (-1e+300 -1e+300 -1e+300) (-1e+300 -1e+300 -1e+300) (-1e+300 -1e+300 -1e+300) (-1e+300 -1e+300 -1e+300) (-1e+300 -1e+300 -1e+300) (-1e+300 -1e+300 -1e+300) (-1e+300 -1e+300 -1e+300) (-1e+300 -1e+300 -1e+300) (-1e+300 -1e+300 -1e+300) (-1e+300 -1e+300 -1e+300) (-1e+300 -1e+300 -1e+300) (-1e+300 -1e+300 -1e+300) (1.5 -1.18973e-07 0) (1.5 -3.75703e-07 0) (1.50001 -9.08163e-09 0)
0.001         (-1e+300 -1e+300 -1e+300) (-1e+300 -1e+300 -1e+300) (-1e+300 -1e+300 -1e+300) (-1e+300 -1e+300 -1e+300) (-1e+300 -1e+300 -1e+300) (-1e+300 -1e+300 -1e+300) (-1e+300 -1e+300 -1e+300) (-1e+300 -1e+300 -1e+300) (-1e+300 -1e+300 -1e+300) (-1e+300 -1e+300 -1e+300) (-1e+300 -1e+300 -1e+300) (-1e+300 -1e+300 -1e+300) (-1e+300 -1e+300 -1e+300) (-1e+300 -1e+300 -1e+300) (-1e+300 -1e+300 -1e+300) (-1e+300 -1e+300 -1e+300) (-1e+300 -1e+300 -1e+300) (-1e+300 -1e+300 -1e+300) (-1e+300 -1e+300 -1e+300) (-1e+300 -1e+300 -1e+300) (-1e+300 -1e+300 -1e+300) (-1e+300 -1e+300 -1e+300) (-1e+300 -1e+300 -1e+300) (-1e+300 -1e+300 -1e+300) (-1e+300 -1e+300 -1e+300) (-1e+300 -1e+300 -1e+300) (-1e+300 -1e+300 -1e+300) (-1e+300 -1e+300 -1e+300) (-1e+300 -1e+300 -1e+300) (-1e+300 -1e+300 -1e+300) (-1e+300 -1e+300 -1e+300) (-1e+300 -1e+300 -1e+300) (-1e+300 -1e+300 -1e+300) (-1e+300 -1e+300 -1e+300) (1.5 -1.93601e-07 0) (1.5 -6.38834e-07 0) (1.50001 -1.61375e-08 0)
0.0015        (-1e+300 -1e+300 -1e+300) (-1e+300 -1e+300 -1e+300) (-1e+300 -1e+300 -1e+300) (-1e+300 -1e+300 -1e+300) (-1e+300 -1e+300 -1e+300) (-1e+300 -1e+300 -1e+300) (-1e+300 -1e+300 -1e+300) (-1e+300 -1e+300 -1e+300) (-1e+300 -1e+300 -1e+300) (-1e+300 -1e+300 -1e+300) (-1e+300 -1e+300 -1e+300) (-1e+300 -1e+300 -1e+300) (-1e+300 -1e+300 -1e+300) (-1e+300 -1e+300 -1e+300) (-1e+300 -1e+300 -1e+300) (-1e+300 -1e+300 -1e+300) (-1e+300 -1e+300 -1e+300) (-1e+300 -1e+300 -1e+300) (-1e+300 -1e+300 -1e+300) (-1e+300 -1e+300 -1e+300) (-1e+300 -1e+300 -1e+300) (-1e+300 -1e+300 -1e+300) (-1e+300 -1e+300 -1e+300) (-1e+300 -1e+300 -1e+300) (-1e+300 -1e+300 -1e+300) (-1e+300 -1e+300 -1e+300) (-1e+300 -1e+300 -1e+300) (-1e+300 -1e+300 -1e+300) (-1e+300 -1e+300 -1e+300) (-1e+300 -1e+300 -1e+300) (-1e+300 -1e+300 -1e+300) (-1e+300 -1e+300 -1e+300) (-1e+300 -1e+300 -1e+300) (-1e+300 -1e+300 -1e+300) (1.5 -2.7623e-07 0) (1.5 -7.33041e-07 0) (1.50001 -1.92223e-08 0)
0.002         (-1e+300 -1e+300 -1e+300) (-1e+300 -1e+300 -1e+300) (-1e+300 -1e+300 -1e+300) (-1e+300 -1e+300 -1e+300) (-1e+300 -1e+300 -1e+300) (-1e+300 -1e+300 -1e+300) (-1e+300 -1e+300 -1e+300) (-1e+300 -1e+300 -1e+300) (-1e+300 -1e+300 -1e+300) (-1e+300 -1e+300 -1e+300) (-1e+300 -1e+300 -1e+300) (-1e+300 -1e+300 -1e+300) (-1e+300 -1e+300 -1e+300) (-1e+300 -1e+300 -1e+300) (-1e+300 -1e+300 -1e+300) (-1e+300 -1e+300 -1e+300) (-1e+300 -1e+300 -1e+300) (-1e+300 -1e+300 -1e+300) (-1e+300 -1e+300 -1e+300) (-1e+300 -1e+300 -1e+300) (-1e+300 -1e+300 -1e+300) (-1e+300 -1e+300 -1e+300) (-1e+300 -1e+300 -1e+300) (-1e+300 -1e+300 -1e+300) (-1e+300 -1e+300 -1e+300) (-1e+300 -1e+300 -1e+300) (-1e+300 -1e+300 -1e+300) (-1e+300 -1e+300 -1e+300) (-1e+300 -1e+300 -1e+300) (-1e+300 -1e+300 -1e+300) (-1e+300 -1e+300 -1e+300) (-1e+300 -1e+300 -1e+300) (-1e+300 -1e+300 -1e+300) (-1e+300 -1e+300 -1e+300) (1.5 -5.201e-07 0) (1.5 -9.26196e-07 0) (1.5 -2.21014e-08 0)
0.0025        (-1e+300 -1e+300 -1e+300) (-1e+300 -1e+300 -1e+300) (-1e+300 -1e+300 -1e+300) (-1e+300 -1e+300 -1e+300) (-1e+300 -1e+300 -1e+300) (-1e+300 -1e+300 -1e+300) (-1e+300 -1e+300 -1e+300) (-1e+300 -1e+300 -1e+300) (-1e+300 -1e+300 -1e+300) (-1e+300 -1e+300 -1e+300) (-1e+300 -1e+300 -1e+300) (-1e+300 -1e+300 -1e+300) (-1e+300 -1e+300 -1e+300) (-1e+300 -1e+300 -1e+300) (-1e+300 -1e+300 -1e+300) (-1e+300 -1e+300 -1e+300) (-1e+300 -1e+300 -1e+300) (-1e+300 -1e+300 -1e+300) (-1e+300 -1e+300 -1e+300) (-1e+300 -1e+300 -1e+300) (-1e+300 -1e+300 -1e+300) (-1e+300 -1e+300 -1e+300) (-1e+300 -1e+300 -1e+300) (-1e+300 -1e+300 -1e+300) (-1e+300 -1e+300 -1e+300) (-1e+300 -1e+300 -1e+300) (-1e+300 -1e+300 -1e+300) (-1e+300 -1e+300 -1e+300) (-1e+300 -1e+300 -1e+300) (-1e+300 -1e+300 -1e+300) (-1e+300 -1e+300 -1e+300) (-1e+300 -1e+300 -1e+300) (-1e+300 -1e+300 -1e+300) (-1e+300 -1e+300 -1e+300) (1.5 -1.36338e-06 0) (1.5 -2.01172e-06 0) (1.5 -3.77765e-08 0)
0.003         (-1e+300 -1e+300 -1e+300) (-1e+300 -1e+300 -1e+300) (-1e+300 -1e+300 -1e+300) (-1e+300 -1e+300 -1e+300) (-1e+300 -1e+300 -1e+300) (-1e+300 -1e+300 -1e+300) (-1e+300 -1e+300 -1e+300) (-1e+300 -1e+300 -1e+300) (-1e+300 -1e+300 -1e+300) (-1e+300 -1e+300 -1e+300) (-1e+300 -1e+300 -1e+300) (-1e+300 -1e+300 -1e+300) (-1e+300 -1e+300 -1e+300) (-1e+300 -1e+300 -1e+300) (-1e+300 -1e+300 -1e+300) (-1e+300 -1e+300 -1e+300) (-1e+300 -1e+300 -1e+300) (-1e+300 -1e+300 -1e+300) (-1e+300 -1e+300 -1e+300) (-1e+300 -1e+300 -1e+300) (-1e+300 -1e+300 -1e+300) (-1e+300 -1e+300 -1e+300) (-1e+300 -1e+300 -1e+300) (-1e+300 -1e+300 -1e+300) (-1e+300 -1e+300 -1e+300) (-1e+300 -1e+300 -1e+300) (-1e+300 -1e+300 -1e+300) (-1e+300 -1e+300 -1e+300) (-1e+300 -1e+300 -1e+300) (-1e+300 -1e+300 -1e+300) (-1e+300 -1e+300 -1e+300) (-1e+300 -1e+300 -1e+300) (-1e+300 -1e+300 -1e+300) (-1e+300 -1e+300 -1e+300) (1.5 -4.0272e-06 0) (1.5 -5.97422e-06 0) (1.5 -9.66162e-08 0)
