# Probe 0 (-0.01 0 0)
# Probe 1 (-0.01 0.0009 0)
# Probe 2 (-0.0098 0.0017 0)  # Not Found
# Probe 3 (-0.0097 0.0026 0)
# Probe 4 (-0.0094 0.0034 0)  # Not Found
# Probe 5 (-0.0091 0.0042 0)
# Probe 6 (-0.0087 0.005 0)
# Probe 7 (-0.0082 0.0057 0)  # Not Found
# Probe 8 (-0.0077 0.0064 0)
# Probe 9 (-0.0071 0.0071 0)
# Probe 10 (-0.0064 0.0077 0)
# Probe 11 (-0.0057 0.0082 0)  # Not Found
# Probe 12 (-0.005 0.0087 0)
# Probe 13 (-0.0042 0.0091 0)
# Probe 14 (-0.0034 0.0094 0)  # Not Found
# Probe 15 (-0.0026 0.0097 0)
# Probe 16 (-0.0017 0.0098 0)  # Not Found
# Probe 17 (-0.0009 0.01 0)
# Probe 18 (0 0.01 0)
# Probe 19 (0.0009 0.01 0)
# Probe 20 (0.0017 0.0098 0)  # Not Found
# Probe 21 (0.0026 0.0097 0)
# Probe 22 (0.0034 0.0094 0)  # Not Found
# Probe 23 (0.0042 0.0091 0)
# Probe 24 (0.005 0.0087 0)
# Probe 25 (0.0057 0.0082 0)  # Not Found
# Probe 26 (0.0064 0.0077 0)
# Probe 27 (0.0071 0.0071 0)
# Probe 28 (0.0077 0.0064 0)
# Probe 29 (0.0082 0.0057 0)  # Not Found
# Probe 30 (0.0087 0.005 0)
# Probe 31 (0.0091 0.0042 0)
# Probe 32 (0.0094 0.0034 0)  # Not Found
# Probe 33 (0.0097 0.0026 0)
# Probe 34 (0.0098 0.0017 0)  # Not Found
# Probe 35 (0.01 0.0009 0)
# Probe 36 (0.01 0 0)
# Time        0             1             2             3             4             5             6             7             8             9             10            11            12            13            14            15            16            17            18            19            20            21            22            23            24            25            26            27            28            29            30            31            32            33            34            35            36           
0.5           0.0126178     0.0123529     -1e+300       0.0102702     -1e+300       0.0064406     0.00433352    -1e+300       -0.000853349  -0.00374625   -0.00593251   -1e+300       -0.010053     -0.0113984    -1e+300       -0.0131326    -1e+300       -0.0131895    -0.0127015    -0.0121668    -1e+300       -0.010877     -1e+300       -0.00985868   -0.00953166   -1e+300       -0.00909178   -0.00905525   -0.00911915   -1e+300       -0.0092317    -0.00911972   -1e+300       -0.00811042   -1e+300       -0.00666807   -0.00641254  
1             0.0123658     0.0121175     -1e+300       0.0101694     -1e+300       0.00660764    0.00466121    -1e+300       -7.79983e-05  -0.00267779   -0.00461344   -1e+300       -0.00814803   -0.00924243   -1e+300       -0.0105048    -1e+300       -0.0103198    -0.00982191   -0.00933705   -1e+300       -0.00827292   -1e+300       -0.00749906   -0.00726077   -1e+300       -0.0069663    -0.00694657   -0.00697887   -1e+300       -0.0069953    -0.00690377   -1e+300       -0.00635893   -1e+300       -0.00570092   -0.00559067  
1.5           0.0123022     0.0120618     -1e+300       0.0101765     -1e+300       0.00673833    0.00486491    -1e+300       0.000324737   -0.00214847   -0.00397845   -1e+300       -0.00727646   -0.00827511   -1e+300       -0.00937177   -1e+300       -0.00912105   -0.00863235   -0.00817291   -1e+300       -0.00719326   -1e+300       -0.00649887   -0.006288     -1e+300       -0.00601324   -0.00597312   -0.00596412   -1e+300       -0.00593209   -0.00586708   -1e+300       -0.00557079   -1e+300       -0.00525177   -0.00520011  
2             0.0122564     0.0120207     -1e+300       0.0101744     -1e+300       0.00681149    0.00498182    -1e+300       0.000558041   -0.00184347   -0.00361509   -1e+300       -0.00678815   -0.00773897   -1e+300       -0.00875927   -1e+300       -0.00848642   -0.0080071    -0.00756264   -1e+300       -0.00662517   -1e+300       -0.00596715   -0.00576826   -1e+300       -0.00549613   -0.00544154   -0.00540807   -1e+300       -0.00535504   -0.00530627   -1e+300       -0.00512536   -1e+300       -0.00494908   -0.00492135  
2.5           0.0122309     0.0119983     -1e+300       0.0101765     -1e+300       0.00686069    0.0050581     -1e+300       0.000705244   -0.00165347   -0.00339083   -1e+300       -0.00649282   -0.0074176    -1e+300       -0.00839894   -1e+300       -0.00811834   -0.00764607   -0.00721072   -1e+300       -0.00629649   -1e+300       -0.00565727   -0.00546453   -1e+300       -0.00519292   -0.0051296    -0.00508127   -1e+300       -0.00501528   -0.00497481   -1e+300       -0.00484998   -1e+300       -0.00473995   -0.00472316  
3             0.0122155     0.011985      -1e+300       0.0101794     -1e+300       0.00689457    0.00510965    -1e+300       0.000802478   -0.00152916   -0.00324516   -1e+300       -0.00630403   -0.00721361   -1e+300       -0.00817366   -1e+300       -0.00789082   -0.00742364   -0.00699409   -1e+300       -0.00609353   -1e+300       -0.0054647    -0.00527535   -1e+300       -0.00500455   -0.00493653   -0.00487958   -1e+300       -0.00480471   -0.00476793   -1e+300       -0.0046706    -1e+300       -0.00459265   -0.00458108  
3.5           0.0122057     0.0119766     -1e+300       0.0101823     -1e+300       0.00691881    0.00514597    -1e+300       0.00086965    -0.00144397   -0.00314595   -1e+300       -0.00617719   -0.00707738   -1e+300       -0.0080251    -1e+300       -0.00774218   -0.00727873   -0.00685305   -1e+300       -0.00596105   -1e+300       -0.00533831   -0.00515092   -1e+300       -0.00488105   -0.0048107    -0.00474902   -1e+300       -0.00466836   -0.00463306   -1e+300       -0.00454943   -1e+300       -0.00448777   -0.0044789   
4             0.0122001     0.011972      -1e+300       0.0101858     -1e+300       0.0069373     0.00517294    -1e+300       0.000918164   -0.00138304   -0.00307544   -1e+300       -0.00608819   -0.00698229   -1e+300       -0.0079225    -1e+300       -0.00764026   -0.00717954   -0.00675653   -1e+300       -0.00587011   -1e+300       -0.0052511    -0.00506487   -1e+300       -0.00479581   -0.00472437   -0.0046602    -1e+300       -0.00457597   -0.00454116   -1e+300       -0.00446423   -1e+300       -0.0044108    -0.00440322  
4.5           0.0121962     0.0119689     -1e+300       0.0101885     -1e+300       0.00695111    0.00519295    -1e+300       0.000953765   -0.00133852   -0.0030241    -1e+300       -0.00602389   -0.00691382   -1e+300       -0.00784913   -1e+300       -0.00756774   -0.00710906   -0.00668796   -1e+300       -0.00580541   -1e+300       -0.00518885   -0.00500335   -1e+300       -0.00473491   -0.00466297   -0.00459757   -1e+300       -0.00451147   -0.00447692   -1e+300       -0.00440372   -1e+300       -0.00435496   -0.0043482   
5             0.0121935     0.0119667     -1e+300       0.0101907     -1e+300       0.00696143    0.00520777    -1e+300       0.000979787   -0.00130621   -0.00298705   -1e+300       -0.00597808   -0.00686534   -1e+300       -0.00779792   -1e+300       -0.00751776   -0.00706072   -0.00664104   -1e+300       -0.00576118   -1e+300       -0.00514619   -0.00496111   -1e+300       -0.00469304   -0.00462081   -0.00455465   -1e+300       -0.00446723   -0.00443267   -1e+300       -0.00436122   -1e+300       -0.00431487   -0.00430852  
5.5           0.0121918     0.0119653     -1e+300       0.0101923     -1e+300       0.0069688     0.00521837    -1e+300       0.00099844    -0.00128303   -0.00296047   -1e+300       -0.00594527   -0.00683064   -1e+300       -0.0077613    -1e+300       -0.00748197   -0.00702603   -0.00660729   -1e+300       -0.00572913   -1e+300       -0.00511504   -0.00493019   -1e+300       -0.00466233   -0.00459002   -0.00452359   -1e+300       -0.00443572   -0.00440122   -1e+300       -0.00433068   -1e+300       -0.00428532   -0.00427898  
6             0.0121908     0.0119648     -1e+300       0.0101947     -1e+300       0.00697612    0.00522842    -1e+300       0.00101525    -0.00126245   -0.00293704   -1e+300       -0.00591661   -0.0068004    -1e+300       -0.00772944   -1e+300       -0.00745083   -0.00699586   -0.00657796   -1e+300       -0.0057014    -1e+300       -0.00508826   -0.00490366   -1e+300       -0.00463598   -0.00456354   -0.00449682   -1e+300       -0.0044086    -0.00437424   -1e+300       -0.00430495   -1e+300       -0.00426149   -0.00425585  
6.5           0.01219       0.0119641     -1e+300       0.0101955     -1e+300       0.00698       0.00523402    -1e+300       0.00102503    -0.00125042   -0.0029234    -1e+300       -0.00590031   -0.00678347   -1e+300       -0.00771238   -1e+300       -0.0074349    -0.00698071   -0.00656337   -1e+300       -0.00568762   -1e+300       -0.00507473   -0.00489016   -1e+300       -0.00462255   -0.00455009   -0.00448322   -1e+300       -0.00439432   -0.00435955   -1e+300       -0.00428921   -1e+300       -0.00424436   -0.0042379   
7             0.0121893     0.0119638     -1e+300       0.0101973     -1e+300       0.00698516    0.005241      -1e+300       0.00103649    -0.00123643   -0.00290748   -1e+300       -0.00588068   -0.00676259   -1e+300       -0.00768985   -1e+300       -0.00741219   -0.00695832   -0.00654133   -1e+300       -0.00566635   -1e+300       -0.00505397   -0.0048695    -1e+300       -0.00460193   -0.00452951   -0.00446286   -1e+300       -0.00437506   -0.00434107   -1e+300       -0.00427291   -1e+300       -0.00423027   -0.00422467  
7.5           0.0121876     0.0119619     -1e+300       0.0101955     -1e+300       0.00698458    0.00524117    -1e+300       0.00103863    -0.00123319   -0.00290344   -1e+300       -0.00587541   -0.00675713   -1e+300       -0.00768483   -1e+300       -0.00740853   -0.00695555   -0.00653923   -1e+300       -0.00566537   -1e+300       -0.00505363   -0.00486938   -1e+300       -0.00460198   -0.00452929   -0.00446193   -1e+300       -0.00437218   -0.00433738   -1e+300       -0.00426818   -1e+300       -0.00422583   -0.00422057  
8             0.0121821     0.0119561     -1e+300       0.0101886     -1e+300       0.00697557    0.00523086    -1e+300       0.0010245     -0.00124996   -0.00292255   -1e+300       -0.0059002    -0.00678442   -1e+300       -0.00771689   -1e+300       -0.00744319   -0.00699053   -0.00657397   -1e+300       -0.00569869   -1e+300       -0.00508529   -0.00490043   -1e+300       -0.00463254   -0.00456025   -0.00449384   -1e+300       -0.00440592   -0.0043714    -1e+300       -0.00430061   -1e+300       -0.0042534    -0.00424529  
8.5           0.0121559     0.0119315     -1e+300       0.0101633     -1e+300       0.00694395    0.00519477    -1e+300       0.000975241   -0.00130799   -0.00298802   -1e+300       -0.00598273   -0.00687406   -1e+300       -0.00781972   -1e+300       -0.00755354   -0.00710246   -0.00668613   -1e+300       -0.0058095    -1e+300       -0.00519435   -0.00500883   -1e+300       -0.00473895   -0.0046655    -0.00459789   -1e+300       -0.00451066   -0.00447825   -1e+300       -0.00441668   -1e+300       -0.00438344   -0.00438221  
9             0.0120806     0.0118492     -1e+300       0.0100487     -1e+300       0.00677547    0.00499616    -1e+300       0.000697614   -0.00163431   -0.00335436   -1e+300       -0.00643741   -0.00736439   -1e+300       -0.00837367   -1e+300       -0.00813964   -0.00769249   -0.00727376   -1e+300       -0.00638237   -1e+300       -0.00575128   -0.00556039   -1e+300       -0.00528332   -0.00520816   -0.00513836   -1e+300       -0.00504348   -0.00500532   -1e+300       -0.00492539   -1e+300       -0.00486809   -0.00485511  
9.5           0.0120195     0.0117873     -1e+300       0.00995011    -1e+300       0.00659625    0.00476909    -1e+300       0.000342668   -0.00206796   -0.00385199   -1e+300       -0.00707203   -0.00805178   -1e+300       -0.00914778   -1e+300       -0.00894544   -0.00849373   -0.00806345   -1e+300       -0.00713562   -1e+300       -0.00647222   -0.00627037   -1e+300       -0.00597457   -0.00589432   -0.00582278   -1e+300       -0.00574121   -0.00571569   -1e+300       -0.00567608   -1e+300       -0.0056698    -0.00568132  
10            0.012083      0.0118263     -1e+300       0.00989951    -1e+300       0.0064098     0.00450879    -1e+300       -0.000108146  -0.00263469   -0.00451329   -1e+300       -0.00793915   -0.00900032   -1e+300       -0.0102353    -1e+300       -0.010089     -0.00963183   -0.0091828    -1e+300       -0.00818974   -1e+300       -0.00746262   -0.00723903   -1e+300       -0.00691363   -0.00682658   -0.00674649   -1e+300       -0.00663224   -0.00658074   -1e+300       -0.00645547   -1e+300       -0.00633647   -0.00629446  
10.5          0.0121539     0.0119266     -1e+300       0.0100435     -1e+300       0.00656653    0.00466159    -1e+300       1.57178e-05   -0.0025377    -0.00444231   -1e+300       -0.00793745   -0.00903174   -1e+300       -0.0103385    -1e+300       -0.0102489    -0.00981363   -0.00937727   -1e+300       -0.00840153   -1e+300       -0.00768508   -0.0074653    -1e+300       -0.00713705   -0.00704048   -0.00694396   -1e+300       -0.00681014   -0.00676323   -1e+300       -0.00669233   -1e+300       -0.00668383   -0.00670098  
11            0.012159      0.0119257     -1e+300       0.0100105     -1e+300       0.00648196    0.00455014    -1e+300       -0.000158593  -0.00274461   -0.00467194   -1e+300       -0.00820012   -0.00929831   -1e+300       -0.0105844    -1e+300       -0.0104363    -0.00995855   -0.00948714   -1e+300       -0.00844155   -1e+300       -0.00767676   -0.00744119   -1e+300       -0.00709592   -0.00700993   -0.0069498    -1e+300       -0.00693456   -0.00695083   -1e+300       -0.00701728   -1e+300       -0.0071262    -0.007193    
11.5          0.0121734     0.011852      -1e+300       0.00971144    -1e+300       0.00591763    0.00385484    -1e+300       -0.00117592   -0.00395431   -0.00603953   -1e+300       -0.00992237   -0.0111689    -1e+300       -0.0127335    -1e+300       -0.0127397    -0.0122824    -0.0117968    -1e+300       -0.010655     -1e+300       -0.00976935   -0.00948793   -1e+300       -0.00908096   -0.00898415   -0.00890961   -1e+300       -0.00880987   -0.00874708   -1e+300       -0.00851743   -1e+300       -0.00817606   -0.00800891  
12            0.0121954     0.0119423     -1e+300       0.00992898    -1e+300       0.00621925    0.00417794    -1e+300       -0.000845077  -0.0036456    -0.00576288   -1e+300       -0.00976464   -0.0110836    -1e+300       -0.0128441    -1e+300       -0.0130635    -0.012716     -0.0123084    -1e+300       -0.0113018    -1e+300       -0.010504     -0.0102524    -1e+300       -0.0098712    -0.00974358   -0.00957956   -1e+300       -0.00921673   -0.00903313   -1e+300       -0.00864404   -1e+300       -0.00837182   -0.00829086  
12.5          0.0122641     0.0121391     -1e+300       0.0104027     -1e+300       0.0069647     0.00504589    -1e+300       0.000309235   -0.00232333   -0.00430116   -1e+300       -0.00797529   -0.00914627   -1e+300       -0.0105908    -1e+300       -0.0105625    -0.0101261    -0.00967574   -1e+300       -0.00865347   -1e+300       -0.00790659   -0.00768002   -1e+300       -0.00733545   -0.00724469   -0.0072022    -1e+300       -0.00737464   -0.00755436   -1e+300       -0.00816565   -1e+300       -0.00902117   -0.0094464   
13            0.0122528     0.0119412     -1e+300       0.00977076    -1e+300       0.00588445    0.0037641     -1e+300       -0.00142253   -0.00429648   -0.00645811   -1e+300       -0.0104943    -0.0117918    -1e+300       -0.0134037    -1e+300       -0.0133352    -0.0127832    -0.012202     -1e+300       -0.0108232    -1e+300       -0.00973467   -0.00938001   -1e+300       -0.00882765   -0.00869584   -0.00864455   -1e+300       -0.00880006   -0.00891968   -1e+300       -0.00917826   -1e+300       -0.00929495   -0.0092935   
13.5          0.0122962     0.0118492     -1e+300       0.00935014    -1e+300       0.00508384    0.00277232    -1e+300       -0.00290637   -0.00609489   -0.00853026   -1e+300       -0.0132459    -0.0148664    -1e+300       -0.0172053    -1e+300       -0.0177639    -0.0174683    -0.017032     -1e+300       -0.0157921    -1e+300       -0.014666     -0.0142725    -1e+300       -0.0136601    -0.0135165    -0.0134319    -1e+300       -0.0133703    -0.0132883    -1e+300       -0.0127291    -1e+300       -0.0115126    -0.0108243   
14            0.012386      0.0122162     -1e+300       0.0103346     -1e+300       0.00667798    0.00463455    -1e+300       -0.000451851  -0.00332241   -0.00551294   -1e+300       -0.00972892   -0.0111611    -1e+300       -0.0131965    -1e+300       -0.0136797    -0.0134564    -0.013132     -1e+300       -0.0122621    -1e+300       -0.0115524    -0.0113315    -1e+300       -0.010975     -0.0108144    -0.0105608    -1e+300       -0.0100055    -0.00980178   -1e+300       -0.00966797   -1e+300       -0.00995046   -0.0101039   
14.5          0.0126563     0.0125758     -1e+300       0.0109037     -1e+300       0.00748892    0.00557015    -1e+300       0.000818104   -0.00182784   -0.00381609   -1e+300       -0.00750273   -0.00866997   -1e+300       -0.0100738    -1e+300       -0.00995418   -0.00945029   -0.0089426    -1e+300       -0.00780253   -1e+300       -0.00697842   -0.00673108   -1e+300       -0.00636581   -0.00629811   -0.00634455   -1e+300       -0.00683182   -0.00718643   -1e+300       -0.00827745   -1e+300       -0.00984104   -0.0106572   
15            0.0127863     0.0123908     -1e+300       0.0100027     -1e+300       0.0058564     0.00360637    -1e+300       -0.00190292   -0.00497255   -0.00729645   -1e+300       -0.0117049    -0.0131615    -1e+300       -0.0150792    -1e+300       -0.015181     -0.0146432    -0.0140314    -1e+300       -0.0124839    -1e+300       -0.0111801    -0.010739     -1e+300       -0.0100213    -0.00982906   -0.00973196   -1e+300       -0.00991527   -0.0100768    -1e+300       -0.0104227    -1e+300       -0.0104431    -0.0102831   
15.5          0.0128978     0.0124559     -1e+300       0.00994921    -1e+300       0.00564457    0.00330465    -1e+300       -0.00246669   -0.00572512   -0.00822631   -1e+300       -0.0131201    -0.0148315    -1e+300       -0.0173888    -1e+300       -0.0181566    -0.0179576    -0.0175833    -1e+300       -0.0164284    -1e+300       -0.0153276    -0.0149353    -1e+300       -0.0143206    -0.0141746    -0.0140797    -1e+300       -0.0139404    -0.0137783    -1e+300       -0.0128973    -1e+300       -0.011251     -0.0103994   
16            0.0125187     0.0124026     -1e+300       0.0106359     -1e+300       0.00708938    0.0050943     -1e+300       0.000117325   -0.00269153   -0.00483217   -1e+300       -0.00893612   -0.0103199    -1e+300       -0.0122576    -1e+300       -0.0126728    -0.0124304    -0.0121011    -1e+300       -0.011248     -1e+300       -0.0105761    -0.0103707    -1e+300       -0.01002      -0.00985311   -0.00961346   -1e+300       -0.00927119   -0.0092634    -1e+300       -0.00971114   -1e+300       -0.0105596    -0.0109041   
16.5          0.0125044     0.0123926     -1e+300       0.0106468     -1e+300       0.00715597    0.00520342    -1e+300       0.000378135   -0.0023051    -0.00432022   -1e+300       -0.00805273   -0.00923141   -1e+300       -0.010633     -1e+300       -0.010466     -0.00991745   -0.00936764   -1e+300       -0.00812722   -1e+300       -0.00721702   -0.00693972   -1e+300       -0.00652701   -0.00644797   -0.00648606   -1e+300       -0.00693377   -0.00724557   -1e+300       -0.00817628   -1e+300       -0.00954421   -0.0103101   
17            0.0123541     0.0119152     -1e+300       0.00942492    -1e+300       0.0051666     0.00286251    -1e+300       -0.00278014   -0.00593144   -0.00832484   -1e+300       -0.0128981    -0.0144303    -1e+300       -0.0165111    -1e+300       -0.0167416    -0.016249     -0.0156571    -1e+300       -0.0141057    -1e+300       -0.0127568    -0.0122918    -1e+300       -0.0115268    -0.0113174    -0.0112011    -1e+300       -0.0113577    -0.0115105    -1e+300       -0.0118158    -1e+300       -0.0116955    -0.0114216   
17.5          0.0123783     0.0119756     -1e+300       0.00955561    -1e+300       0.00533443    0.00303013    -1e+300       -0.00266593   -0.00588652   -0.0083603    -1e+300       -0.0132049    -0.0149016    -1e+300       -0.017448     -1e+300       -0.0182419    -0.0180744    -0.0177328    -1e+300       -0.0166657    -1e+300       -0.0156536    -0.0152981    -1e+300       -0.0147605    -0.014635     -0.0145334    -1e+300       -0.0142521    -0.0139723    -1e+300       -0.0127975    -1e+300       -0.0110567    -0.010271    
18            0.0123817     0.0123016     -1e+300       0.0106178     -1e+300       0.00716044    0.00520808    -1e+300       0.000336289   -0.00240802   -0.00449352   -1e+300       -0.00846573   -0.00978873   -1e+300       -0.011594     -1e+300       -0.0119015    -0.011618     -0.0112671    -1e+300       -0.0103978    -1e+300       -0.00973719   -0.00953741   -1e+300       -0.00919014   -0.0090363    -0.00885712   -1e+300       -0.00880963   -0.00899228   -1e+300       -0.00988679   -1e+300       -0.0111228    -0.0116092   
18.5          0.012419      0.0122627     -1e+300       0.0104163     -1e+300       0.00682518    0.0048285     -1e+300       -9.36912e-05  -0.00282812   -0.00488186   -1e+300       -0.00868939   -0.0098937    -1e+300       -0.0113269    -1e+300       -0.0111449    -0.0105668    -0.00998453   -1e+300       -0.00865636   -1e+300       -0.00766173   -0.0073527    -1e+300       -0.00688309   -0.00678341   -0.00679567   -1e+300       -0.00717106   -0.00742941   -1e+300       -0.00816223   -1e+300       -0.00919607   -0.0097971   
19            0.0123786     0.0119094     -1e+300       0.00934841    -1e+300       0.00501228    0.00267013    -1e+300       -0.00306847   -0.00628021   -0.00872602   -1e+300       -0.0134289    -0.015023     -1e+300       -0.017245     -1e+300       -0.017601     -0.0171617    -0.0166008    -1e+300       -0.0150805    -1e+300       -0.0137223    -0.0132467    -1e+300       -0.0124586    -0.0122418    -0.0121152    -1e+300       -0.0122412    -0.012374     -1e+300       -0.0125947    -1e+300       -0.012288     -0.0118972   
19.5          0.0124225     0.0120682     -1e+300       0.00975721    -1e+300       0.00564522    0.00338939    -1e+300       -0.00219864   -0.00536074   -0.00778922   -1e+300       -0.0125407    -0.014202     -1e+300       -0.0166906    -1e+300       -0.0174696    -0.0173158    -0.0169961    -1e+300       -0.0160039    -1e+300       -0.0150795    -0.0147625    -1e+300       -0.014299     -0.0141839    -0.0140553    -1e+300       -0.0135997    -0.0132109    -1e+300       -0.0118798    -1e+300       -0.0103111    -0.00969846  
20            0.0124731     0.0124173     -1e+300       0.0107906     -1e+300       0.0073971     0.00547647    -1e+300       0.000686068   -0.00200611   -0.00404622   -1e+300       -0.00790435   -0.00917275   -1e+300       -0.0108539    -1e+300       -0.0110521    -0.0107221    -0.0103433    -1e+300       -0.00944041   -1e+300       -0.00877336   -0.00857349   -1e+300       -0.00823395   -0.00810633   -0.00800657   -1e+300       -0.00823268   -0.00855788   -1e+300       -0.00975178   -1e+300       -0.0112761    -0.0118929   
20.5          0.0124623     0.0122546     -1e+300       0.0102922     -1e+300       0.006584      0.00453492    -1e+300       -0.000505194  -0.00330423   -0.00540834   -1e+300       -0.00932056   -0.0105649    -1e+300       -0.0120632    -1e+300       -0.0118967    -0.0113023    -0.0106954    -1e+300       -0.00928853   -1e+300       -0.00820987   -0.00786794   -1e+300       -0.00733711   -0.00721379   -0.00719711   -1e+300       -0.00750932   -0.00772723   -1e+300       -0.00830399   -1e+300       -0.00901181   -0.00940984  
21            0.012446      0.0119585     -1e+300       0.00935414    -1e+300       0.00496772    0.00259982    -1e+300       -0.00320705   -0.00646408   -0.00895045   -1e+300       -0.0137586    -0.0154053    -1e+300       -0.0177534    -1e+300       -0.0182322    -0.017851     -0.0173283    -1e+300       -0.0158624    -1e+300       -0.0145203    -0.0140441    -1e+300       -0.0132523    -0.013036     -0.0129068    -1e+300       -0.0129999    -0.0131022    -1e+300       -0.0131894    -1e+300       -0.0126375    -0.0121169   
21.5          0.0124448     0.012144      -1e+300       0.00995418    -1e+300       0.00596532    0.00376501    -1e+300       -0.00169666   -0.00478833   -0.00716099   -1e+300       -0.0117927    -0.0134056    -1e+300       -0.0158061    -1e+300       -0.0165412    -0.0163876    -0.0160806    -1e+300       -0.0151483    -1e+300       -0.0143031    -0.0140216    -1e+300       -0.0136154    -0.0134962    -0.0133224    -1e+300       -0.0127034    -0.0122536    -1e+300       -0.0109901    -1e+300       -0.00984075   -0.00946076  
22            0.0125043     0.0124603     -1e+300       0.0108624     -1e+300       0.00750401    0.00560228    -1e+300       0.000864384   -0.00179149   -0.00379855   -1e+300       -0.0075681    -0.00879159   -1e+300       -0.0103644    -1e+300       -0.0104575    -0.0100779    -0.00966616   -1e+300       -0.00871288   -1e+300       -0.00802219   -0.00781685   -1e+300       -0.00748536   -0.00738761   -0.00736306   -1e+300       -0.00778664   -0.00819213   -1e+300       -0.00953548   -1e+300       -0.0112542    -0.0119901   
22.5          0.0124339     0.0121715     -1e+300       0.010085      -1e+300       0.00624996    0.00414337    -1e+300       -0.00102863   -0.00390187   -0.00606507   -1e+300       -0.0101054    -0.0114018    -1e+300       -0.0129946    -1e+300       -0.0128727    -0.012276     -0.0116536    -1e+300       -0.0101809    -1e+300       -0.00902258   -0.00864819   -1e+300       -0.00805658   -0.00790992   -0.00786585   -1e+300       -0.00813063   -0.00832341   -1e+300       -0.00879825   -1e+300       -0.00924283   -0.00944498  
23            0.0124461     0.0119534     -1e+300       0.00933504    -1e+300       0.00492829    0.00254819    -1e+300       -0.00329595   -0.00658085   -0.00909382   -1e+300       -0.0139772    -0.0156643    -1e+300       -0.0181161    -1e+300       -0.0187067    -0.0183846    -0.0179043    -1e+300       -0.0165117    -1e+300       -0.0152104    -0.0147442    -1e+300       -0.0139711    -0.0137642    -0.0136402    -1e+300       -0.0136958    -0.0137533    -1e+300       -0.0136472    -1e+300       -0.0127907    -0.0121339   
23.5          0.012424      0.0121785     -1e+300       0.0101146     -1e+300       0.00625517    0.00411394    -1e+300       -0.00121106   -0.004225     -0.00653511   -1e+300       -0.0110286    -0.0125836    -1e+300       -0.0148727    -1e+300       -0.0155405    -0.015375     -0.0150721    -1e+300       -0.0141836    -1e+300       -0.0134058    -0.0131545    -1e+300       -0.0127838    -0.0126487    -0.0124244    -1e+300       -0.0117145    -0.0112855    -1e+300       -0.0103385    -1e+300       -0.00976146   -0.00962187  
24            0.0125015     0.012456      -1e+300       0.0108565     -1e+300       0.00750249    0.00560562    -1e+300       0.000888053   -0.00174956   -0.00373781   -1e+300       -0.00744972   -0.00864065   -1e+300       -0.0101269    -1e+300       -0.0101244    -0.00969384   -0.0092451    -1e+300       -0.00822593   -1e+300       -0.00749421   -0.00727741   -1e+300       -0.00694566   -0.00687105   -0.00689957   -1e+300       -0.00742365   -0.00784975   -1e+300       -0.00920365   -1e+300       -0.0110059    -0.0118356   
24.5          0.0124054     0.0120881     -1e+300       0.00987672    -1e+300       0.00591277    0.00374701    -1e+300       -0.00156298   -0.00451554   -0.00674296   -1e+300       -0.0109271    -0.0122844    -1e+300       -0.0139952    -1e+300       -0.0139447    -0.0133597    -0.0127318    -1e+300       -0.0112097    -1e+300       -0.00997996   -0.00957507   -1e+300       -0.00892629   -0.00875825   -0.00868989   -1e+300       -0.00892017   -0.00909928   -1e+300       -0.00951581   -1e+300       -0.00976873   -0.0098076   
25            0.0124474     0.0119629     -1e+300       0.00936121    -1e+300       0.00496568    0.00258783    -1e+300       -0.00325994   -0.00655338   -0.00907734   -1e+300       -0.0140007    -0.0157131    -1e+300       -0.0182388    -1e+300       -0.0189225    -0.0186555    -0.0182188    -1e+300       -0.0169129    -1e+300       -0.0156744    -0.0152287    -1e+300       -0.0144982    -0.0143097    -0.0141975    -1e+300       -0.0142034    -0.0141973    -1e+300       -0.0138335    -1e+300       -0.0126379    -0.0118587   
25.5          0.0124148     0.0122229     -1e+300       0.0102815     -1e+300       0.00654951    0.00446712    -1e+300       -0.000719734  -0.00365361   -0.00589836   -1e+300       -0.0102442    -0.0117357    -1e+300       -0.0138979    -1e+300       -0.0144802    -0.0142925    -0.0139856    -1e+300       -0.0131242    -1e+300       -0.0123995    -0.0121715    -1e+300       -0.0118167    -0.0116621    -0.011403     -1e+300       -0.0107267    -0.0104107    -1e+300       -0.00996281   -1e+300       -0.00998605   -0.0100587   
26            0.0125        0.0124397     -1e+300       0.0108081     -1e+300       0.00742669    0.00552011    -1e+300       0.000788837   -0.00185008   -0.00383531   -1e+300       -0.00752465   -0.00869766   -1e+300       -0.010125     -1e+300       -0.010042     -0.00956201   -0.00907409   -1e+300       -0.00797639   -1e+300       -0.0071873    -0.00695247   -1e+300       -0.00660455   -0.0065396    -0.00659181   -1e+300       -0.00712942   -0.00753042   -1e+300       -0.0087792    -1e+300       -0.0105296    -0.0114013   
26.5          0.0123897     0.0120208     -1e+300       0.00969158    -1e+300       0.00560453    0.00338156    -1e+300       -0.00206403   -0.00509617   -0.00738892   -1e+300       -0.011724     -0.0131472    -1e+300       -0.0149926    -1e+300       -0.0150358    -0.014476     -0.0138532    -1e+300       -0.0123015    -1e+300       -0.0110125    -0.0105804    -1e+300       -0.00988021   -0.00969351   -0.00960408   -1e+300       -0.00980629   -0.00997697   -1e+300       -0.0103569    -1e+300       -0.0104657    -0.0103741   