# Probe 0 (-0.01 0 0)
# Probe 1 (-0.01 0.0009 0)
# Probe 2 (-0.0098 0.0017 0)  # Not Found
# Probe 3 (-0.0097 0.0026 0)
# Probe 4 (-0.0094 0.0034 0)  # Not Found
# Probe 5 (-0.0091 0.0042 0)
# Probe 6 (-0.0087 0.005 0)
# Probe 7 (-0.0082 0.0057 0)  # Not Found
# Probe 8 (-0.0077 0.0064 0)
# Probe 9 (-0.0071 0.0071 0)
# Probe 10 (-0.0064 0.0077 0)
# Probe 11 (-0.0057 0.0082 0)  # Not Found
# Probe 12 (-0.005 0.0087 0)
# Probe 13 (-0.0042 0.0091 0)
# Probe 14 (-0.0034 0.0094 0)  # Not Found
# Probe 15 (-0.0026 0.0097 0)
# Probe 16 (-0.0017 0.0098 0)  # Not Found
# Probe 17 (-0.0009 0.01 0)
# Probe 18 (0 0.01 0)
# Probe 19 (0.0009 0.01 0)
# Probe 20 (0.0017 0.0098 0)  # Not Found
# Probe 21 (0.0026 0.0097 0)
# Probe 22 (0.0034 0.0094 0)  # Not Found
# Probe 23 (0.0042 0.0091 0)
# Probe 24 (0.005 0.0087 0)
# Probe 25 (0.0057 0.0082 0)  # Not Found
# Probe 26 (0.0064 0.0077 0)
# Probe 27 (0.0071 0.0071 0)
# Probe 28 (0.0077 0.0064 0)
# Probe 29 (0.0082 0.0057 0)  # Not Found
# Probe 30 (0.0087 0.005 0)
# Probe 31 (0.0091 0.0042 0)
# Probe 32 (0.0094 0.0034 0)  # Not Found
# Probe 33 (0.0097 0.0026 0)
# Probe 34 (0.0098 0.0017 0)  # Not Found
# Probe 35 (0.01 0.0009 0)
# Probe 36 (0.01 0 0)
# Time        0             1             2             3             4             5             6             7             8             9             10            11            12            13            14            15            16            17            18            19            20            21            22            23            24            25            26            27            28            29            30            31            32            33            34            35            36           
0.5           1.14631e-13   6.65944e-08   -1e+300       1.80683e-07   -1e+300       2.78308e-07   3.13778e-07   -1e+300       3.65778e-07   3.85366e-07   3.88108e-07   -1e+300       3.6767e-07    3.44975e-07   -1e+300       2.68625e-07   -1e+300       1.72278e-07   -1.19394e-07  -7.24769e-08  -1e+300       -1.16834e-08  -1e+300       1.75499e-08   2.21915e-08   -1e+300       1.84353e-08   1.43261e-08   1.79604e-08   -1e+300       5.18983e-08   7.72813e-08   -1e+300       1.13314e-07   -1e+300       6.13056e-08   3.59987e-13  
1             9.78502e-14   6.34263e-08   -1e+300       1.71681e-07   -1e+300       2.63132e-07   2.95711e-07   -1e+300       3.41656e-07   3.56558e-07   3.56214e-07   -1e+300       3.30383e-07   3.05724e-07   -1e+300       2.28234e-07   -1e+300       1.37244e-07   -9.02396e-08  -5.05538e-08  -1e+300       -2.92245e-09  -1e+300       1.69431e-08   1.89304e-08   -1e+300       1.43479e-08   1.21806e-08   1.65053e-08   -1e+300       3.79045e-08   5.11915e-08   -1e+300       6.51082e-08   -1e+300       3.32244e-08   3.2866e-13   
1.5           6.7791e-14    6.1934e-08    -1e+300       1.67467e-07   -1e+300       2.56121e-07   2.8743e-07    -1e+300       3.30828e-07   3.43888e-07   3.4242e-07    -1e+300       3.14894e-07   2.89807e-07   -1e+300       2.12895e-07   -1e+300       1.25023e-07   -8.06411e-08  -4.38208e-08  -1e+300       -7.59334e-10  -1e+300       1.64425e-08   1.81568e-08   -1e+300       1.50041e-08   1.32247e-08   1.49293e-08   -1e+300       2.59537e-08   3.25203e-08   -1e+300       3.77521e-08   -1e+300       1.86292e-08   4.47586e-13  
2             -2.2082e-13   6.10009e-08   -1e+300       1.64853e-07   -1e+300       2.51838e-07   2.82421e-07   -1e+300       3.24438e-07   3.36588e-07   3.34613e-07   -1e+300       3.06489e-07   2.81375e-07   -1e+300       2.05258e-07   -1e+300       1.19374e-07   -7.64192e-08  -4.10357e-08  -1e+300       -6.33041e-11  -1e+300       1.61076e-08   1.78776e-08   -1e+300       1.57586e-08   1.41078e-08   1.4057e-08    -1e+300       1.92915e-08   2.25162e-08   -1e+300       2.40063e-08   -1e+300       1.14795e-08   -9.16204e-13 
2.5           7.02338e-13   6.04076e-08   -1e+300       1.63201e-07   -1e+300       2.49157e-07   2.79305e-07   -1e+300       3.20524e-07   3.32182e-07   3.29959e-07   -1e+300       3.01623e-07   2.76575e-07   -1e+300       2.01104e-07   -1e+300       1.16478e-07   -7.43445e-08  -3.97454e-08  -1e+300       1.6191e-10    -1e+300       1.58658e-08   1.77122e-08   -1e+300       1.62916e-08   1.47869e-08   1.38219e-08   -1e+300       1.58117e-08   1.72071e-08   -1e+300       1.67538e-08   -1e+300       7.73225e-09   2.68969e-12  
3             -1.33602e-12  6.00146e-08   -1e+300       1.62106e-07   -1e+300       2.47395e-07   2.77265e-07   -1e+300       3.17995e-07   3.29373e-07   3.27023e-07   -1e+300       2.98629e-07   2.73667e-07   -1e+300       1.9869e-07    -1e+300       1.14889e-07   -7.32566e-08  -3.91131e-08  -1e+300       2.14517e-10   -1e+300       1.56879e-08   1.75854e-08   -1e+300       1.66002e-08   1.52423e-08   1.38848e-08   -1e+300       1.41278e-08   1.45008e-08   -1e+300       1.29373e-08   -1e+300       5.75679e-09   -4.98157e-12 
3.5           1.7496e-12    5.9738e-08    -1e+300       1.61346e-07   -1e+300       2.46181e-07   2.75868e-07   -1e+300       3.16283e-07   3.27493e-07   3.25076e-07   -1e+300       2.96687e-07   2.71805e-07   -1e+300       1.97203e-07   -1e+300       1.13964e-07   -7.26533e-08  -3.87904e-08  -1e+300       2.02709e-10   -1e+300       1.55562e-08   1.74822e-08   -1e+300       1.67521e-08   1.55079e-08   1.40087e-08   -1e+300       1.33464e-08   1.31498e-08   -1e+300       1.09226e-08   -1e+300       4.69035e-09   6.70864e-12  
4             -1.06617e-12  5.95448e-08   -1e+300       1.60808e-07   -1e+300       2.45324e-07   2.74884e-07   -1e+300       3.15087e-07   3.26191e-07   3.23736e-07   -1e+300       2.95374e-07   2.70562e-07   -1e+300       1.96243e-07   -1e+300       1.13398e-07   -7.2302e-08   -3.86197e-08  -1e+300       1.7067e-10    -1e+300       1.54602e-08   1.74024e-08   -1e+300       1.68163e-08   1.5649e-08    1.41129e-08   -1e+300       1.29999e-08   1.24952e-08   -1e+300       9.88007e-09   -1e+300       4.13739e-09   -5.00913e-12 
4.5           -1.28277e-12  5.94016e-08   -1e+300       1.60413e-07   -1e+300       2.44698e-07   2.74166e-07   -1e+300       3.14221e-07   3.25254e-07   3.22778e-07   -1e+300       2.94448e-07   2.69691e-07   -1e+300       1.95588e-07   -1e+300       1.13027e-07   -7.2082e-08   -3.85228e-08  -1e+300       1.36074e-10   -1e+300       1.53897e-08   1.73418e-08   -1e+300       1.68342e-08   1.57117e-08   1.41666e-08   -1e+300       1.28229e-08   1.21512e-08   -1e+300       9.31322e-09   -1e+300       3.82848e-09   -2.81124e-12 
5             5.09688e-12   5.92897e-08   -1e+300       1.60117e-07   -1e+300       2.44236e-07   2.73641e-07   -1e+300       3.13595e-07   3.24585e-07   3.221e-07     -1e+300       2.93808e-07   2.691e-07     -1e+300       1.95165e-07   -1e+300       1.12813e-07   -7.19705e-08  -3.84919e-08  -1e+300       8.97503e-11   -1e+300       1.5331e-08    1.72927e-08   -1e+300       1.68377e-08   1.57458e-08   1.42055e-08   -1e+300       1.2741e-08    1.19743e-08   -1e+300       8.99549e-09   -1e+300       3.63751e-09   2.12007e-11  
5.5           -8.40905e-12  5.92245e-08   -1e+300       1.59914e-07   -1e+300       2.43911e-07   2.73268e-07   -1e+300       3.13149e-07   3.24109e-07   3.21619e-07   -1e+300       2.93358e-07   2.68686e-07   -1e+300       1.94875e-07   -1e+300       1.12669e-07   -7.18985e-08  -3.84737e-08  -1e+300       5.95325e-11   -1e+300       1.5296e-08    1.72634e-08   -1e+300       1.68338e-08   1.5757e-08    1.42226e-08   -1e+300       1.271e-08     1.1904e-08    -1e+300       8.87806e-09   -1e+300       3.6125e-09    -5.07296e-11 
6             9.24637e-12   5.9146e-08    -1e+300       1.59729e-07   -1e+300       2.43628e-07   2.72949e-07   -1e+300       3.12771e-07   3.23707e-07   3.21212e-07   -1e+300       2.92976e-07   2.68333e-07   -1e+300       1.94624e-07   -1e+300       1.12542e-07   -7.18321e-08  -3.84548e-08  -1e+300       3.27822e-11   -1e+300       1.52626e-08   1.72354e-08   -1e+300       1.68277e-08   1.57598e-08   1.42182e-08   -1e+300       1.26421e-08   1.17898e-08   -1e+300       8.68266e-09   -1e+300       3.43513e-09   7.625e-11    
6.5           -1.03374e-11  5.91184e-08   -1e+300       1.59621e-07   -1e+300       2.43453e-07   2.72748e-07   -1e+300       3.12537e-07   3.23464e-07   3.20973e-07   -1e+300       2.92769e-07   2.68154e-07   -1e+300       1.94525e-07   -1e+300       1.12524e-07   -7.1847e-08   -3.84895e-08  -1e+300       -8.23272e-12  -1e+300       1.52333e-08   1.72123e-08   -1e+300       1.68239e-08   1.57719e-08   1.42567e-08   -1e+300       1.27017e-08   1.18516e-08   -1e+300       8.74972e-09   -1e+300       3.5407e-09    -6.36565e-11 
7             1.66135e-11   5.90546e-08   -1e+300       1.59493e-07   -1e+300       2.43266e-07   2.72539e-07   -1e+300       3.12292e-07   3.23202e-07   3.20707e-07   -1e+300       2.92513e-07   2.67912e-07   -1e+300       1.94338e-07   -1e+300       1.12407e-07   -7.17681e-08  -3.84421e-08  -1e+300       3.32313e-12   -1e+300       1.52335e-08   1.72115e-08   -1e+300       1.68129e-08   1.5746e-08    1.41985e-08   -1e+300       1.26021e-08   1.17407e-08   -1e+300       8.64859e-09   -1e+300       3.48721e-09   -3.67651e-11 
7.5           -1.25155e-11  5.90602e-08   -1e+300       1.59454e-07   -1e+300       2.43185e-07   2.72441e-07   -1e+300       3.12168e-07   3.23068e-07   3.20573e-07   -1e+300       2.92394e-07   2.67809e-07   -1e+300       1.94288e-07   -1e+300       1.12416e-07   -7.1802e-08   -3.84927e-08  -1e+300       -5.56235e-11  -1e+300       1.51832e-08   1.71711e-08   -1e+300       1.68165e-08   1.57786e-08   1.42563e-08   -1e+300       1.26174e-08   1.17016e-08   -1e+300       8.45586e-09   -1e+300       3.1928e-09    2.62105e-10  
8             -6.50958e-11  5.91255e-08   -1e+300       1.59551e-07   -1e+300       2.43325e-07   2.72605e-07   -1e+300       3.12387e-07   3.23335e-07   3.20872e-07   -1e+300       2.92752e-07   2.68189e-07   -1e+300       1.9468e-07    -1e+300       1.12753e-07   -7.20811e-08  -3.87042e-08  -1e+300       -1.5129e-10   -1e+300       1.51602e-08   1.71573e-08   -1e+300       1.6777e-08    1.57254e-08   1.42273e-08   -1e+300       1.27435e-08   1.19491e-08   -1e+300       9.00889e-09   -1e+300       3.97566e-09   -5.71235e-10 
8.5           2.50605e-10   5.89421e-08   -1e+300       1.59605e-07   -1e+300       2.43617e-07   2.73001e-07   -1e+300       3.12986e-07   3.24075e-07   3.21695e-07   -1e+300       2.93699e-07   2.69169e-07   -1e+300       1.95642e-07   -1e+300       1.13552e-07   -7.27442e-08  -3.92188e-08  -1e+300       -4.28367e-10  -1e+300       1.50425e-08   1.70944e-08   -1e+300       1.67779e-08   1.56987e-08   1.40458e-08   -1e+300       1.21905e-08   1.11861e-08   -1e+300       7.84198e-09   -1e+300       2.60844e-09   8.00852e-10  
9             -2.41587e-10  5.99618e-08   -1e+300       1.61579e-07   -1e+300       2.46545e-07   2.76349e-07   -1e+300       3.17147e-07   3.28794e-07   3.26739e-07   -1e+300       2.99187e-07   2.7474e-07    -1e+300       2.00928e-07   -1e+300       1.17829e-07   -7.62234e-08  -4.18455e-08  -1e+300       -1.70401e-09  -1e+300       1.45927e-08   1.68402e-08   -1e+300       1.67619e-08   1.58111e-08   1.44273e-08   -1e+300       1.3012e-08    1.22129e-08   -1e+300       9.21534e-09   -1e+300       4.18613e-09   -8.54014e-10 
9.5           2.30201e-10   6.06419e-08   -1e+300       1.64282e-07   -1e+300       2.51182e-07   2.81805e-07   -1e+300       3.24117e-07   3.36729e-07   3.35197e-07   -1e+300       3.08236e-07   2.83803e-07   -1e+300       2.09167e-07   -1e+300       1.24074e-07   -8.10418e-08  -4.52166e-08  -1e+300       -2.92454e-09  -1e+300       1.46129e-08   1.71493e-08   -1e+300       1.71342e-08   1.59127e-08   1.38303e-08   -1e+300       1.1384e-08    1.01842e-08   -1e+300       6.67473e-09   -1e+300       1.46938e-09   1.93266e-09  
10            -1.73825e-09  6.37476e-08   -1e+300       1.695e-07     -1e+300       2.58577e-07   2.90177e-07   -1e+300       3.34403e-07   3.48345e-07   3.47591e-07   -1e+300       3.21683e-07   2.97428e-07   -1e+300       2.21984e-07   -1e+300       1.34191e-07   -8.90274e-08  -5.09143e-08  -1e+300       -4.98672e-09  -1e+300       1.47289e-08   1.7732e-08    -1e+300       1.82624e-08   1.74777e-08   1.65554e-08   -1e+300       1.62844e-08   1.61631e-08   -1e+300       1.44337e-08   -1e+300       9.81067e-09   -6.26412e-09 
10.5          2.55781e-09   6.01632e-08   -1e+300       1.67189e-07   -1e+300       2.57543e-07   2.89711e-07   -1e+300       3.35077e-07   3.49861e-07   3.49646e-07   -1e+300       3.24694e-07   3.00822e-07   -1e+300       2.25885e-07   -1e+300       1.37962e-07   -9.24654e-08  -5.39013e-08  -1e+300       -7.12267e-09  -1e+300       1.32913e-08   1.66459e-08   -1e+300       1.79369e-08   1.71926e-08   1.52838e-08   -1e+300       1.16502e-08   9.30292e-09   -1e+300       2.57591e-09   -1e+300       -5.3489e-09   9.46965e-09  
11            5.60677e-10   6.28286e-08   -1e+300       1.70932e-07   -1e+300       2.6219e-07    2.94692e-07   -1e+300       3.40552e-07   3.55501e-07   3.55267e-07   -1e+300       3.29894e-07   3.05587e-07   -1e+300       2.29117e-07   -1e+300       1.39124e-07   -9.24665e-08  -5.28979e-08  -1e+300       -4.96342e-09  -1e+300       1.5763e-08    1.8907e-08    -1e+300       1.84229e-08   1.62142e-08   1.24947e-08   -1e+300       9.11745e-09   8.14669e-09   -1e+300       5.91358e-09   -1e+300       1.25549e-09   2.66984e-09  
11.5          -8.08934e-09  7.23088e-08   -1e+300       1.82142e-07   -1e+300       2.75461e-07   3.08992e-07   -1e+300       3.57102e-07   3.73853e-07   3.74823e-07   -1e+300       3.51498e-07   3.27887e-07   -1e+300       2.51457e-07   -1e+300       1.58459e-07   -1.08775e-07  -6.55488e-08  -1e+300       -1.09503e-08  -1e+300       1.44598e-08   1.87253e-08   -1e+300       1.97469e-08   1.8979e-08    1.93221e-08   -1e+300       2.40464e-08   2.74488e-08   -1e+300       3.37719e-08   -1e+300       3.40923e-08   -3.11451e-08 
12            3.41912e-09   6.15417e-08   -1e+300       1.72803e-07   -1e+300       2.67737e-07   3.02073e-07   -1e+300       3.52014e-07   3.70384e-07   3.72556e-07   -1e+300       3.51903e-07   3.2972e-07    -1e+300       2.56469e-07   -1e+300       1.65965e-07   -1.17076e-07  -7.41371e-08  -1e+300       -1.89935e-08  -1e+300       7.73248e-09   1.30341e-08   -1e+300       1.83009e-08   2.01867e-08   2.23573e-08   -1e+300       2.10905e-08   1.76887e-08   -1e+300       4.30066e-09   -1e+300       -1.05565e-08  1.62254e-08  
12.5          1.47533e-08   5.06953e-08   -1e+300       1.62403e-07   -1e+300       2.57218e-07   2.91302e-07   -1e+300       3.40341e-07   3.57658e-07   3.58969e-07   -1e+300       3.36361e-07   3.13183e-07   -1e+300       2.38228e-07   -1e+300       1.47885e-07   -1.00257e-07  -5.93769e-08  -1e+300       -9.04176e-09  -1e+300       1.34157e-08   1.72406e-08   -1e+300       1.68775e-08   1.25849e-08   1.78568e-09   -1e+300       -1.5458e-08   -2.36629e-08  -1e+300       -4.13927e-08  -1e+300       -5.83576e-08  6.52099e-08  
13            -1.05577e-08  7.65637e-08   -1e+300       1.89449e-07   -1e+300       2.85661e-07   3.20427e-07   -1e+300       3.70865e-07   3.89149e-07   3.90965e-07   -1e+300       3.6867e-07    3.45078e-07   -1e+300       2.66964e-07   -1e+300       1.69472e-07   -1.16269e-07  -6.92207e-08  -1e+300       -8.42162e-09  -1e+300       2.10594e-08   2.64707e-08   -1e+300       2.61694e-08   2.13402e-08   1.29429e-08   -1e+300       1.04674e-08   1.45603e-08   -1e+300       3.24871e-08   -1e+300       4.93391e-08   -5.164e-08   
13.5          -1.86001e-08  8.5117e-08    -1e+300       1.99573e-07   -1e+300       2.98295e-07   3.34528e-07   -1e+300       3.88653e-07   4.10428e-07   4.14903e-07   -1e+300       3.98424e-07   3.77798e-07   -1e+300       3.05398e-07   -1e+300       2.09884e-07   -1.55223e-07  -1.04782e-07  -1e+300       -3.45699e-08  -1e+300       4.47088e-09   1.30088e-08   -1e+300       1.82343e-08   1.81436e-08   2.11705e-08   -1e+300       3.80332e-08   5.13787e-08   -1e+300       8.31248e-08   -1e+300       9.77123e-08   -9.36286e-08 
14            1.67729e-08   4.98967e-08   -1e+300       1.64194e-07   -1e+300       2.6223e-07    2.98e-07      -1e+300       3.5097e-07    3.71778e-07   3.75651e-07   -1e+300       3.58451e-07   3.37932e-07   -1e+300       2.67888e-07   -1e+300       1.79075e-07   -1.30221e-07  -8.66927e-08  -1e+300       -2.95033e-08  -1e+300       -4.21645e-10  6.16779e-09   -1e+300       1.52354e-08   1.86481e-08   1.90686e-08   -1e+300       3.08175e-09   -1.21831e-08  -1e+300       -5.29285e-08  -1e+300       -8.00587e-08  8.15952e-08  
14.5          1.78976e-08   4.87971e-08   -1e+300       1.6252e-07    -1e+300       2.59106e-07   2.93901e-07   -1e+300       3.44192e-07   3.62251e-07   3.63924e-07   -1e+300       3.41599e-07   3.1827e-07    -1e+300       2.42091e-07   -1e+300       1.49325e-07   -1.00053e-07  -5.75754e-08  -1e+300       -5.12572e-09  -1e+300       1.81091e-08   2.18913e-08   -1e+300       1.90441e-08   1.12912e-08   -5.86822e-09  -1e+300       -2.6908e-08   -3.48703e-08  -1e+300       -5.4537e-08   -1e+300       -8.26729e-08  9.69677e-08  
15            -2.02374e-08  8.71359e-08   -1e+300       2.01862e-07   -1e+300       3.00282e-07   3.36167e-07   -1e+300       3.89112e-07   4.09483e-07   4.12757e-07   -1e+300       3.93182e-07   3.70688e-07   -1e+300       2.9356e-07    -1e+300       1.93564e-07   -1.37115e-07  -8.57125e-08  -1e+300       -1.60063e-08  -1e+300       2.08007e-08   2.85531e-08   -1e+300       3.13321e-08   2.65064e-08   1.58128e-08   -1e+300       1.13853e-08   1.71978e-08   -1e+300       4.75728e-08   -1e+300       8.50457e-08   -9.74698e-08 
15.5          -1.56273e-08  8.26799e-08   -1e+300       1.98219e-07   -1e+300       2.98229e-07   3.35121e-07   -1e+300       3.90765e-07   4.13883e-07   4.19356e-07   -1e+300       4.05067e-07   3.85576e-07   -1e+300       3.15557e-07   -1e+300       2.21512e-07   -1.66956e-07  -1.16021e-07  -1e+300       -4.36906e-08  -1e+300       -1.98028e-09  7.62773e-09   -1e+300       1.49925e-08   1.63189e-08   2.23087e-08   -1e+300       4.41491e-08   5.96957e-08   -1e+300       9.19643e-08   -1e+300       9.79629e-08   -8.71725e-08 
16            2.24645e-08   4.44328e-08   -1e+300       1.58975e-07   -1e+300       2.57053e-07   2.92775e-07   -1e+300       3.45524e-07   3.66058e-07   3.69707e-07   -1e+300       3.5201e-07    3.31259e-07   -1e+300       2.60932e-07   -1e+300       1.72532e-07   -1.24323e-07  -8.17139e-08  -1e+300       -2.65303e-08  -1e+300       9.06099e-10   7.11834e-09   -1e+300       1.48381e-08   1.58623e-08   9.2648e-09    -1e+300       -1.91851e-08  -3.95081e-08  -1e+300       -8.52933e-08  -1e+300       -1.09717e-07  1.07034e-07  
16.5          1.28689e-08   5.39723e-08   -1e+300       1.67969e-07   -1e+300       2.64835e-07   2.99753e-07   -1e+300       3.50267e-07   3.68441e-07   3.70144e-07   -1e+300       3.47693e-07   3.24157e-07   -1e+300       2.47001e-07   -1e+300       1.52424e-07   -1.01854e-07  -5.80095e-08  -1e+300       -3.3973e-09   -1e+300       2.11291e-08   2.51939e-08   -1e+300       2.25245e-08   1.48233e-08   -1.42999e-09  -1e+300       -1.79285e-08  -2.2228e-08   -1e+300       -3.23209e-08  -1e+300       -5.55822e-08  7.24832e-08  
17            -2.41163e-08  9.11086e-08   -1e+300       2.06161e-07   -1e+300       3.05126e-07   3.41334e-07   -1e+300       3.9509e-07    4.16222e-07   4.20058e-07   -1e+300       4.0171e-07    3.79818e-07   -1e+300       3.03737e-07   -1e+300       2.03782e-07   -1.46696e-07  -9.41664e-08  -1e+300       -2.16282e-08  -1e+300       1.79806e-08   2.66834e-08   -1e+300       3.08866e-08   2.67763e-08   1.735e-08     -1e+300       1.48762e-08   2.1911e-08    -1e+300       5.63275e-08   -1e+300       9.90089e-08   -1.14126e-07 
17.5          -9.86519e-09  7.69462e-08   -1e+300       1.92499e-07   -1e+300       2.92484e-07   3.29356e-07   -1e+300       3.84958e-07   4.08068e-07   4.1356e-07    -1e+300       3.99419e-07   3.80089e-07   -1e+300       3.10765e-07   -1e+300       2.18025e-07   -1.64464e-07  -1.14651e-07  -1e+300       -4.43461e-08  -1e+300       -4.24075e-09  4.90099e-09   -1e+300       1.28621e-08   1.57768e-08   2.50009e-08   -1e+300       4.86142e-08   6.22875e-08   -1e+300       8.19849e-08   -1e+300       7.14046e-08   -5.54693e-08 
18            2.53506e-08   4.15307e-08   -1e+300       1.55902e-07   -1e+300       2.53616e-07   2.89107e-07   -1e+300       3.4125e-07    3.61197e-07   3.64406e-07   -1e+300       3.45732e-07   3.24504e-07   -1e+300       2.53338e-07   -1e+300       1.64881e-07   -1.17125e-07  -7.53053e-08  -1e+300       -2.20289e-08  -1e+300       3.67525e-09   9.26736e-09   -1e+300       1.43902e-08   1.24366e-08   -4.22418e-10  -1e+300       -3.54739e-08  -5.67278e-08  -1e+300       -1.0082e-07   -1e+300       -1.23302e-07  1.19838e-07  
18.5          6.72443e-09   6.01424e-08   -1e+300       1.74246e-07   -1e+300       2.71292e-07   3.06311e-07   -1e+300       3.57048e-07   3.75384e-07   3.77173e-07   -1e+300       3.54763e-07   3.31131e-07   -1e+300       2.53287e-07   -1e+300       1.57136e-07   -1.05319e-07  -6.00791e-08  -1e+300       -3.06056e-09  -1e+300       2.31261e-08   2.76402e-08   -1e+300       2.56436e-08   1.83565e-08   3.29165e-09   -1e+300       -9.41864e-09  -1.05293e-08  -1e+300       -9.89891e-09  -1e+300       -2.20851e-08  3.71833e-08  
19            -2.61956e-08  9.32162e-08   -1e+300       2.08451e-07   -1e+300       3.07785e-07   3.44225e-07   -1e+300       3.9859e-07    4.20322e-07   4.24623e-07   -1e+300       4.0733e-07    3.85993e-07   -1e+300       3.11054e-07   -1e+300       2.1164e-07    -1.54394e-07  -1.01324e-07  -1e+300       -2.70578e-08  -1e+300       1.4524e-08    2.39328e-08   -1e+300       2.92177e-08   2.58425e-08   1.82454e-08   -1e+300       1.89412e-08   2.75825e-08   -1e+300       6.536e-08     -1e+300       1.09563e-07   -1.24414e-07 
19.5          -3.48408e-09  7.0551e-08    -1e+300       1.86004e-07   -1e+300       2.85793e-07   3.2255e-07    -1e+300       3.77879e-07   4.00763e-07   4.0611e-07    -1e+300       3.91771e-07   3.72425e-07   -1e+300       3.03458e-07   -1e+300       2.119e-07     -1.59412e-07  -1.10913e-07  -1e+300       -4.31917e-08  -1e+300       -5.26624e-09  3.29042e-09   -1e+300       1.2036e-08    1.64948e-08   2.78784e-08   -1e+300       4.92873e-08   5.82922e-08   -1e+300       6.05881e-08   -1e+300       3.55897e-08   -1.83187e-08 
20            2.66463e-08   4.02111e-08   -1e+300       1.54415e-07   -1e+300       2.51788e-07   2.87063e-07   -1e+300       3.38637e-07   3.58022e-07   3.6079e-07    -1e+300       3.41143e-07   3.19407e-07   -1e+300       2.47241e-07   -1e+300       1.58379e-07   -1.10806e-07  -6.94677e-08  -1e+300       -1.75535e-08  -1e+300       6.73633e-09   1.16684e-08   -1e+300       1.39378e-08   9.28628e-09   -7.97256e-09  -1e+300       -4.49157e-08  -6.50078e-08  -1e+300       -1.06074e-07  -1e+300       -1.29558e-07  1.27852e-07  
20.5          2.02706e-10   6.66855e-08   -1e+300       1.8092e-07    -1e+300       2.78212e-07   3.13377e-07   -1e+300       3.64467e-07   3.831e-07     3.85082e-07   -1e+300       3.62958e-07   3.39368e-07   -1e+300       2.61128e-07   -1e+300       1.63569e-07   -1.10493e-07  -6.37571e-08  -1e+300       -3.98461e-09  -1e+300       2.42529e-08   2.93555e-08   -1e+300       2.82576e-08   2.14284e-08   7.26874e-09   -1e+300       -2.887e-09    -1.5925e-09   -1e+300       8.74721e-09   -1e+300       1.02132e-08   -4.36411e-10 
21            -2.66985e-08  9.37426e-08   -1e+300       2.09131e-07   -1e+300       3.08777e-07   3.45415e-07   -1e+300       4.00307e-07   4.22568e-07   4.27289e-07   -1e+300       4.1098e-07    3.90187e-07   -1e+300       3.16463e-07   -1e+300       2.17912e-07   -1.6081e-07   -1.07573e-07  -1e+300       -3.23082e-08  -1e+300       1.06629e-08   2.0595e-08    -1e+300       2.67281e-08   2.41233e-08   1.87381e-08   -1e+300       2.34875e-08   3.40885e-08   -1e+300       7.48577e-08   -1e+300       1.17763e-07   -1.30025e-07 
21.5          3.07568e-09   6.39663e-08   -1e+300       1.79272e-07   -1e+300       2.78781e-07   3.15369e-07   -1e+300       3.7029e-07    3.9282e-07    3.97921e-07   -1e+300       3.83155e-07   3.63674e-07   -1e+300       2.94818e-07   -1e+300       2.04304e-07   -1.52891e-07  -1.0577e-07   -1e+300       -4.08566e-08  -1e+300       -5.3049e-09   2.70163e-09   -1e+300       1.23425e-08   1.79046e-08   2.94854e-08   -1e+300       4.40023e-08   4.60053e-08   -1e+300       2.97498e-08   -1e+300       -3.87464e-09  1.85227e-08  
22            2.635e-08     4.04906e-08   -1e+300       1.54564e-07   -1e+300       2.51662e-07   2.86759e-07   -1e+300       3.37852e-07   3.5675e-07    3.59122e-07   -1e+300       3.38569e-07   3.16331e-07   -1e+300       2.43055e-07   -1e+300       1.53439e-07   -1.05742e-07  -6.45285e-08  -1e+300       -1.33266e-08  -1e+300       9.97496e-09   1.43179e-08   -1e+300       1.40877e-08   7.46994e-09   -1.19587e-08  -1e+300       -4.69865e-08  -6.45995e-08  -1e+300       -1.02028e-07  -1e+300       -1.28634e-07  1.30751e-07  
22.5          -6.30035e-09  7.32109e-08   -1e+300       1.87601e-07   -1e+300       2.85203e-07   3.20557e-07   -1e+300       3.72113e-07   3.91162e-07   3.93435e-07   -1e+300       3.7183e-07    3.48415e-07   -1e+300       2.70094e-07   -1e+300       1.71372e-07   -1.17095e-07  -6.88438e-08  -1e+300       -6.11009e-09  -1e+300       2.44726e-08   3.02691e-08   -1e+300       3.02031e-08   2.38573e-08   1.0435e-08    -1e+300       1.91542e-09   4.87891e-09   -1e+300       2.30257e-08   -1e+300       3.79761e-08   -3.54709e-08 
23            -2.56022e-08  9.26664e-08   -1e+300       2.08175e-07   -1e+300       3.08064e-07   3.44858e-07   -1e+300       4.0017e-07    4.22863e-07   4.27933e-07   -1e+300       4.12486e-07   3.92188e-07   -1e+300       3.19676e-07   -1e+300       2.22227e-07   -1.65541e-07  -1.125e-07    -1e+300       -3.7005e-08   -1e+300       6.66475e-09   1.68805e-08   -1e+300       2.35927e-08   2.18243e-08   1.90627e-08   -1e+300       2.86056e-08   4.13516e-08   -1e+300       8.40658e-08   -1e+300       1.22285e-07   -1.29787e-07 
23.5          9.4388e-09    5.75709e-08   -1e+300       1.72693e-07   -1e+300       2.71856e-07   3.08236e-07   -1e+300       3.62642e-07   3.84711e-07   3.89486e-07   -1e+300       3.74095e-07   3.54377e-07   -1e+300       2.85401e-07   -1e+300       1.95769e-07   -1.45394e-07  -9.96542e-08  -1e+300       -3.76207e-08  -1e+300       -4.47154e-09  3.04849e-09   -1e+300       1.33131e-08   1.90991e-08   2.83083e-08   -1e+300       3.17517e-08   2.56918e-08   -1e+300       -6.20895e-09  -1e+300       -4.16218e-08  5.09924e-08  
24            2.44691e-08   4.23633e-08   -1e+300       1.56352e-07   -1e+300       2.53259e-07   2.88229e-07   -1e+300       3.38963e-07   3.57478e-07   3.59532e-07   -1e+300       3.38195e-07   3.15491e-07   -1e+300       2.41058e-07   -1e+300       1.5036e-07    -1.02226e-07  -6.07534e-08  -1e+300       -9.54791e-09  -1e+300       1.32962e-08   1.72311e-08   -1e+300       1.52654e-08   7.55569e-09   -1.21081e-08  -1e+300       -4.27237e-08  -5.70382e-08  -1e+300       -8.96869e-08  -1e+300       -1.19647e-07  1.2688e-07   
24.5          -1.24094e-08  7.93433e-08   -1e+300       1.93909e-07   -1e+300       2.91866e-07   3.2744e-07    -1e+300       3.79552e-07   3.99112e-07   4.01759e-07   -1e+300       3.80874e-07   3.57756e-07   -1e+300       2.79675e-07   -1e+300       1.80106e-07   -1.24757e-07  -7.50609e-08  -1e+300       -9.32187e-09  -1e+300       2.37892e-08   3.03564e-08   -1e+300       3.14184e-08   2.5603e-08    1.29477e-08   -1e+300       5.66208e-09   9.79753e-09   -1e+300       3.38299e-08   -1e+300       6.01489e-08   -6.4897e-08  
25            -2.29575e-08  9.0037e-08    -1e+300       2.05624e-07   -1e+300       3.05671e-07   3.42568e-07   -1e+300       3.98167e-07   4.2117e-07    4.26502e-07   -1e+300       4.11725e-07   3.91843e-07   -1e+300       3.20452e-07   -1e+300       2.24256e-07   -1.68219e-07  -1.15714e-07  -1e+300       -4.0764e-08   -1e+300       2.84494e-09   1.30695e-08   -1e+300       2.01147e-08   1.93276e-08   1.9629e-08    -1e+300       3.43397e-08   4.90308e-08   -1e+300       9.13993e-08   -1e+300       1.20837e-07   -1.21782e-07 
25.5          1.52054e-08   5.1768e-08    -1e+300       1.66686e-07   -1e+300       2.6546e-07    3.01604e-07   -1e+300       3.55419e-07   3.76949e-07   3.81333e-07   -1e+300       3.65164e-07   3.45117e-07   -1e+300       2.75801e-07   -1e+300       1.86844e-07   -1.37413e-07  -9.29811e-08  -1e+300       -3.37422e-08  -1e+300       -2.90048e-09  4.16333e-09   -1e+300       1.43175e-08   1.91609e-08   2.34848e-08   -1e+300       1.37362e-08   3.53194e-10   -1e+300       -4.15158e-08  -1e+300       -7.36507e-08  7.72129e-08  
26            2.10988e-08   4.57341e-08   -1e+300       1.5969e-07    -1e+300       2.56503e-07   2.91404e-07   -1e+300       3.41927e-07   3.60192e-07   3.62023e-07   -1e+300       3.40079e-07   3.16977e-07   -1e+300       2.41411e-07   -1e+300       1.49362e-07   -1.00494e-07  -5.83848e-08  -1e+300       -6.43989e-09  -1e+300       1.65507e-08   2.03286e-08   -1e+300       1.75125e-08   9.45395e-09   -9.21618e-09  -1e+300       -3.42945e-08  -4.48356e-08  -1e+300       -7.06972e-08  -1e+300       -1.01854e-07  1.14297e-07  
26.5          -1.77573e-08  8.47145e-08   -1e+300       1.99467e-07   -1e+300       2.97806e-07   3.33618e-07   -1e+300       3.86342e-07   4.06476e-07   4.09561e-07   -1e+300       3.89556e-07   3.66841e-07   -1e+300       2.89305e-07   -1e+300       1.89264e-07   -1.33044e-07  -8.20646e-08  -1e+300       -1.34573e-08  -1e+300       2.22341e-08   2.96198e-08   -1e+300       3.18749e-08   2.66556e-08   1.49652e-08   -1e+300       9.02465e-09   1.41444e-08   -1e+300       4.26571e-08   -1e+300       7.74706e-08   -8.79859e-08 