# Probe 0 (-0.01 0 0)
# Probe 1 (-0.01 0.0009 0)
# Probe 2 (-0.0098 0.0017 0)  # Not Found
# Probe 3 (-0.0097 0.0026 0)
# Probe 4 (-0.0094 0.0034 0)  # Not Found
# Probe 5 (-0.0091 0.0042 0)
# Probe 6 (-0.0087 0.005 0)
# Probe 7 (-0.0082 0.0057 0)  # Not Found
# Probe 8 (-0.0077 0.0064 0)
# Probe 9 (-0.0071 0.0071 0)
# Probe 10 (-0.0064 0.0077 0)
# Probe 11 (-0.0057 0.0082 0)  # Not Found
# Probe 12 (-0.005 0.0087 0)
# Probe 13 (-0.0042 0.0091 0)
# Probe 14 (-0.0034 0.0094 0)  # Not Found
# Probe 15 (-0.0026 0.0097 0)
# Probe 16 (-0.0017 0.0098 0)  # Not Found
# Probe 17 (-0.0009 0.01 0)
# Probe 18 (0 0.01 0)
# Probe 19 (0.0009 0.01 0)
# Probe 20 (0.0017 0.0098 0)  # Not Found
# Probe 21 (0.0026 0.0097 0)
# Probe 22 (0.0034 0.0094 0)  # Not Found
# Probe 23 (0.0042 0.0091 0)
# Probe 24 (0.005 0.0087 0)
# Probe 25 (0.0057 0.0082 0)  # Not Found
# Probe 26 (0.0064 0.0077 0)
# Probe 27 (0.0071 0.0071 0)
# Probe 28 (0.0077 0.0064 0)
# Probe 29 (0.0082 0.0057 0)  # Not Found
# Probe 30 (0.0087 0.005 0)
# Probe 31 (0.0091 0.0042 0)
# Probe 32 (0.0094 0.0034 0)  # Not Found
# Probe 33 (0.0097 0.0026 0)
# Probe 34 (0.0098 0.0017 0)  # Not Found
# Probe 35 (0.01 0.0009 0)
# Probe 36 (0.01 0 0)
# Time        0             1             2             3             4             5             6             7             8             9             10            11            12            13            14            15            16            17            18            19            20            21            22            23            24            25            26            27            28            29            30            31            32            33            34            35            36           
0.5           1.15113e-13   6.66044e-08   -1e+300       1.80712e-07   -1e+300       2.78357e-07   3.13836e-07   -1e+300       3.65856e-07   3.8546e-07    3.88214e-07   -1e+300       3.67797e-07   3.4511e-07    -1e+300       2.68771e-07   -1e+300       1.72411e-07   -1.19509e-07  -7.2567e-08   -1e+300       -1.17234e-08  -1e+300       1.75497e-08   2.22048e-08   -1e+300       1.84614e-08   1.43446e-08   1.79623e-08   -1e+300       5.19096e-08   7.73157e-08   -1e+300       1.13406e-07   -1e+300       6.13644e-08   3.6418e-13   
1             9.71324e-14   6.34307e-08   -1e+300       1.71693e-07   -1e+300       2.63153e-07   2.95736e-07   -1e+300       3.41689e-07   3.56598e-07   3.56257e-07   -1e+300       3.30433e-07   3.05775e-07   -1e+300       2.28285e-07   -1e+300       1.37286e-07   -9.0273e-08   -5.05777e-08  -1e+300       -2.93073e-09  -1e+300       1.69446e-08   1.89335e-08   -1e+300       1.43476e-08   1.21784e-08   1.6509e-08    -1e+300       3.79388e-08   5.12475e-08   -1e+300       6.51948e-08   -1e+300       3.32715e-08   3.24514e-13  
1.5           6.92354e-14   6.19368e-08   -1e+300       1.67475e-07   -1e+300       2.56133e-07   2.87445e-07   -1e+300       3.30847e-07   3.4391e-07    3.42444e-07   -1e+300       3.1492e-07    2.89833e-07   -1e+300       2.12919e-07   -1e+300       1.25041e-07   -8.06549e-08  -4.38302e-08  -1e+300       -7.61975e-10  -1e+300       1.64434e-08   1.81577e-08   -1e+300       1.50022e-08   1.32224e-08   1.49322e-08   -1e+300       2.59742e-08   3.25514e-08   -1e+300       3.77954e-08   -1e+300       1.86519e-08   4.54182e-13  
2             -2.22915e-13  6.10026e-08   -1e+300       1.64858e-07   -1e+300       2.51846e-07   2.8243e-07    -1e+300       3.24449e-07   3.36601e-07   3.34627e-07   -1e+300       3.06504e-07   2.8139e-07    -1e+300       2.05271e-07   -1e+300       1.19384e-07   -7.64259e-08  -4.104e-08    -1e+300       -6.42079e-11  -1e+300       1.61082e-08   1.78781e-08   -1e+300       1.57571e-08   1.41059e-08   1.40581e-08   -1e+300       1.93028e-08   2.25331e-08   -1e+300       2.40294e-08   -1e+300       1.14914e-08   -9.24097e-13 
2.5           7.04179e-13   6.04087e-08   -1e+300       1.63204e-07   -1e+300       2.49163e-07   2.79311e-07   -1e+300       3.20531e-07   3.32191e-07   3.29968e-07   -1e+300       3.01632e-07   2.76584e-07   -1e+300       2.01111e-07   -1e+300       1.16483e-07   -7.4348e-08   -3.97475e-08  -1e+300       1.61646e-10   -1e+300       1.58663e-08   1.77125e-08   -1e+300       1.62906e-08   1.47856e-08   1.3822e-08    -1e+300       1.58174e-08   1.7216e-08    -1e+300       1.67661e-08   -1e+300       7.73862e-09   2.69568e-12  
3             -1.33429e-12  6.00154e-08   -1e+300       1.62108e-07   -1e+300       2.47398e-07   2.77269e-07   -1e+300       3.18e-07      3.29379e-07   3.27029e-07   -1e+300       2.98635e-07   2.73672e-07   -1e+300       1.98694e-07   -1e+300       1.14892e-07   -7.32585e-08  -3.91142e-08  -1e+300       2.14492e-10   -1e+300       1.56883e-08   1.75856e-08   -1e+300       1.65997e-08   1.52415e-08   1.38845e-08   -1e+300       1.41305e-08   1.45053e-08   -1e+300       1.29439e-08   -1e+300       5.76021e-09   -4.97497e-12 
3.5           1.7402e-12    5.97386e-08   -1e+300       1.61347e-07   -1e+300       2.46184e-07   2.75871e-07   -1e+300       3.16287e-07   3.27497e-07   3.25079e-07   -1e+300       2.9669e-07    2.71808e-07   -1e+300       1.97206e-07   -1e+300       1.13966e-07   -7.26544e-08  -3.87909e-08  -1e+300       2.02782e-10   -1e+300       1.55565e-08   1.74824e-08   -1e+300       1.67518e-08   1.55074e-08   1.40084e-08   -1e+300       1.33477e-08   1.3152e-08    -1e+300       1.09261e-08   -1e+300       4.69221e-09   6.67355e-12  
4             -1.05174e-12  5.95452e-08   -1e+300       1.60809e-07   -1e+300       2.45326e-07   2.74886e-07   -1e+300       3.1509e-07    3.26193e-07   3.23739e-07   -1e+300       2.95377e-07   2.70564e-07   -1e+300       1.96245e-07   -1e+300       1.13399e-07   -7.23027e-08  -3.86201e-08  -1e+300       1.70745e-10   -1e+300       1.54604e-08   1.74025e-08   -1e+300       1.68162e-08   1.56488e-08   1.41127e-08   -1e+300       1.30004e-08   1.24963e-08   -1e+300       9.88184e-09   -1e+300       4.13832e-09   -4.94043e-12 
4.5           -1.30918e-12  5.94019e-08   -1e+300       1.60413e-07   -1e+300       2.44699e-07   2.74168e-07   -1e+300       3.14223e-07   3.25256e-07   3.2278e-07    -1e+300       2.9445e-07    2.69693e-07   -1e+300       1.95589e-07   -1e+300       1.13028e-07   -7.20824e-08  -3.8523e-08   -1e+300       1.36172e-10   -1e+300       1.53898e-08   1.73419e-08   -1e+300       1.68342e-08   1.57116e-08   1.41665e-08   -1e+300       1.28232e-08   1.21518e-08   -1e+300       9.3143e-09    -1e+300       3.82914e-09   -2.9305e-12  
5             5.11755e-12   5.92899e-08   -1e+300       1.60117e-07   -1e+300       2.44237e-07   2.73642e-07   -1e+300       3.13596e-07   3.24586e-07   3.22101e-07   -1e+300       2.9381e-07    2.69101e-07   -1e+300       1.95166e-07   -1e+300       1.12813e-07   -7.19707e-08  -3.84919e-08  -1e+300       8.98608e-11   -1e+300       1.53312e-08   1.72928e-08   -1e+300       1.68377e-08   1.57457e-08   1.42054e-08   -1e+300       1.27411e-08   1.19745e-08   -1e+300       8.99591e-09   -1e+300       3.63768e-09   2.13235e-11  
5.5           -8.40662e-12  5.92247e-08   -1e+300       1.59915e-07   -1e+300       2.43912e-07   2.73269e-07   -1e+300       3.1315e-07    3.2411e-07    3.2162e-07    -1e+300       2.93359e-07   2.68687e-07   -1e+300       1.94876e-07   -1e+300       1.1267e-07    -7.18987e-08  -3.84738e-08  -1e+300       5.95707e-11   -1e+300       1.52961e-08   1.72634e-08   -1e+300       1.68338e-08   1.5757e-08    1.42226e-08   -1e+300       1.27101e-08   1.19043e-08   -1e+300       8.87842e-09   -1e+300       3.61268e-09   -5.07407e-11 
6             9.21428e-12   5.91462e-08   -1e+300       1.59729e-07   -1e+300       2.43629e-07   2.72949e-07   -1e+300       3.12772e-07   3.23708e-07   3.21213e-07   -1e+300       2.92977e-07   2.68334e-07   -1e+300       1.94625e-07   -1e+300       1.12542e-07   -7.18322e-08  -3.84548e-08  -1e+300       3.28988e-11   -1e+300       1.52627e-08   1.72355e-08   -1e+300       1.68277e-08   1.57598e-08   1.42181e-08   -1e+300       1.26421e-08   1.17899e-08   -1e+300       8.68301e-09   -1e+300       3.43551e-09   7.5956e-11   
6.5           -1.02633e-11  5.91184e-08   -1e+300       1.59621e-07   -1e+300       2.43453e-07   2.72749e-07   -1e+300       3.12538e-07   3.23464e-07   3.20974e-07   -1e+300       2.9277e-07    2.68154e-07   -1e+300       1.94526e-07   -1e+300       1.12524e-07   -7.1847e-08   -3.84895e-08  -1e+300       -8.19856e-12  -1e+300       1.52334e-08   1.72123e-08   -1e+300       1.68239e-08   1.57719e-08   1.42567e-08   -1e+300       1.27016e-08   1.18514e-08   -1e+300       8.74928e-09   -1e+300       3.54001e-09   -6.2872e-11  
7             1.6442e-11    5.90549e-08   -1e+300       1.59493e-07   -1e+300       2.43266e-07   2.72539e-07   -1e+300       3.12292e-07   3.23203e-07   3.20708e-07   -1e+300       2.92514e-07   2.67913e-07   -1e+300       1.94339e-07   -1e+300       1.12408e-07   -7.17684e-08  -3.84422e-08  -1e+300       3.31267e-12   -1e+300       1.52335e-08   1.72116e-08   -1e+300       1.68129e-08   1.5746e-08    1.41986e-08   -1e+300       1.26026e-08   1.17414e-08   -1e+300       8.64965e-09   -1e+300       3.48845e-09   -3.79961e-11 
7.5           -1.21274e-11  5.90599e-08   -1e+300       1.59454e-07   -1e+300       2.43185e-07   2.72441e-07   -1e+300       3.12168e-07   3.23068e-07   3.20572e-07   -1e+300       2.92393e-07   2.67809e-07   -1e+300       1.94287e-07   -1e+300       1.12415e-07   -7.18014e-08  -3.84923e-08  -1e+300       -5.53347e-11  -1e+300       1.51833e-08   1.71712e-08   -1e+300       1.68165e-08   1.57786e-08   1.42559e-08   -1e+300       1.26167e-08   1.17008e-08   -1e+300       8.45489e-09   -1e+300       3.19178e-09   2.63159e-10  
8             -6.56919e-11  5.91259e-08   -1e+300       1.59551e-07   -1e+300       2.43325e-07   2.72605e-07   -1e+300       3.12387e-07   3.23334e-07   3.20871e-07   -1e+300       2.92751e-07   2.68188e-07   -1e+300       1.94679e-07   -1e+300       1.12752e-07   -7.20804e-08  -3.87036e-08  -1e+300       -1.51083e-10  -1e+300       1.51602e-08   1.71573e-08   -1e+300       1.67772e-08   1.57258e-08   1.42279e-08   -1e+300       1.27444e-08   1.19499e-08   -1e+300       9.00912e-09   -1e+300       3.9753e-09    -5.70722e-10 
8.5           2.50587e-10   5.89415e-08   -1e+300       1.59604e-07   -1e+300       2.43614e-07   2.72998e-07   -1e+300       3.12982e-07   3.2407e-07    3.2169e-07    -1e+300       2.93694e-07   2.69164e-07   -1e+300       1.95636e-07   -1e+300       1.13548e-07   -7.27405e-08  -3.92159e-08  -1e+300       -4.26766e-10  -1e+300       1.50433e-08   1.70949e-08   -1e+300       1.67779e-08   1.56984e-08   1.40454e-08   -1e+300       1.21909e-08   1.11873e-08   -1e+300       7.84506e-09   -1e+300       2.6128e-09    7.96386e-10  
9             -2.39785e-10  5.99579e-08   -1e+300       1.61571e-07   -1e+300       2.46533e-07   2.76336e-07   -1e+300       3.1713e-07    3.28775e-07   3.26719e-07   -1e+300       2.99165e-07   2.74718e-07   -1e+300       2.00907e-07   -1e+300       1.17813e-07   -7.62107e-08  -4.18363e-08  -1e+300       -1.7003e-09   -1e+300       1.45932e-08   1.68399e-08   -1e+300       1.67615e-08   1.58108e-08   1.44266e-08   -1e+300       1.30091e-08   1.22084e-08   -1e+300       9.20655e-09   -1e+300       4.17426e-09   -8.41535e-10 
9.5           2.2372e-10    6.06453e-08   -1e+300       1.6428e-07    -1e+300       2.51175e-07   2.81796e-07   -1e+300       3.24103e-07   3.36712e-07   3.35179e-07   -1e+300       3.08214e-07   2.83781e-07   -1e+300       2.09146e-07   -1e+300       1.24056e-07   -8.10272e-08  -4.52052e-08  -1e+300       -2.91855e-09  -1e+300       1.46154e-08   1.71508e-08   -1e+300       1.71337e-08   1.5912e-08    1.3831e-08    -1e+300       1.13907e-08   1.01951e-08   -1e+300       6.69553e-09   -1e+300       1.49728e-09   1.90322e-09  
10            -1.72944e-09  6.37368e-08   -1e+300       1.69486e-07   -1e+300       2.58561e-07   2.90159e-07   -1e+300       3.34384e-07   3.48325e-07   3.47571e-07   -1e+300       3.21665e-07   2.97411e-07   -1e+300       2.21973e-07   -1e+300       1.34187e-07   -8.90271e-08  -5.09172e-08  -1e+300       -4.99325e-09  -1e+300       1.47216e-08   1.77253e-08   -1e+300       1.82602e-08   1.74788e-08   1.65598e-08   -1e+300       1.62862e-08   1.61605e-08   -1e+300       1.44177e-08   -1e+300       9.78396e-09   -6.2355e-09  
10.5          2.56987e-09   6.01495e-08   -1e+300       1.67172e-07   -1e+300       2.5752e-07    2.89686e-07   -1e+300       3.35046e-07   3.49826e-07   3.49607e-07   -1e+300       3.24649e-07   3.00774e-07   -1e+300       2.25835e-07   -1e+300       1.37917e-07   -9.24256e-08  -5.38691e-08  -1e+300       -7.10495e-09  -1e+300       1.32986e-08   1.665e-08     -1e+300       1.79327e-08   1.71808e-08   1.52574e-08   -1e+300       1.16061e-08   9.2534e-09    -1e+300       2.52297e-09   -1e+300       -5.39959e-09  9.51949e-09  
11            5.08959e-10   6.28787e-08   -1e+300       1.7098e-07    -1e+300       2.62235e-07   2.94736e-07   -1e+300       3.40594e-07   3.55541e-07   3.55305e-07   -1e+300       3.29928e-07   3.0562e-07    -1e+300       2.29142e-07   -1e+300       1.39139e-07   -9.24751e-08  -5.29004e-08  -1e+300       -4.95704e-09  -1e+300       1.57737e-08   1.89173e-08   -1e+300       1.84304e-08   1.62241e-08   1.25193e-08   -1e+300       9.18055e-09   8.23329e-09   -1e+300       6.05322e-09   -1e+300       1.43545e-09   2.47892e-09  
11.5          -8.07091e-09  7.22889e-08   -1e+300       1.82121e-07   -1e+300       2.7544e-07    3.08972e-07   -1e+300       3.57086e-07   3.73841e-07   3.74815e-07   -1e+300       3.515e-07     3.27895e-07   -1e+300       2.51478e-07   -1e+300       1.58493e-07   -1.08813e-07  -6.55881e-08  -1e+300       -1.09866e-08  -1e+300       1.44296e-08   1.86988e-08   -1e+300       1.974e-08     1.89907e-08   1.93642e-08   -1e+300       2.41086e-08   2.75064e-08   -1e+300       3.37847e-08   -1e+300       3.40415e-08   -3.10692e-08 
12            3.52646e-09   6.14325e-08   -1e+300       1.72689e-07   -1e+300       2.67615e-07   3.01946e-07   -1e+300       3.51878e-07   3.7024e-07    3.72406e-07   -1e+300       3.51745e-07   3.29558e-07   -1e+300       2.56311e-07   -1e+300       1.6583e-07    -1.16963e-07  -7.40498e-08  -1e+300       -1.89551e-08  -1e+300       7.73648e-09   1.30321e-08   -1e+300       1.82937e-08   2.0163e-08    2.22691e-08   -1e+300       2.08519e-08   1.73693e-08   -1e+300       3.85468e-09   -1e+300       -1.1016e-08   1.66523e-08  
12.5          1.46799e-08   5.07673e-08   -1e+300       1.62471e-07   -1e+300       2.5728e-07    2.91361e-07   -1e+300       3.40389e-07   3.57696e-07   3.59e-07      -1e+300       3.36371e-07   3.13181e-07   -1e+300       2.38197e-07   -1e+300       1.47827e-07   -1.00187e-07  -5.92998e-08  -1e+300       -8.96182e-09  -1e+300       1.34883e-08   1.73054e-08   -1e+300       1.69094e-08   1.25994e-08   1.80472e-09   -1e+300       -1.53429e-08  -2.34738e-08  -1e+300       -4.105e-08    -1e+300       -5.79762e-08  6.48831e-08  
13            -1.07181e-08  7.67239e-08   -1e+300       1.89613e-07   -1e+300       2.85833e-07   3.20604e-07   -1e+300       3.71057e-07   3.89354e-07   3.91181e-07   -1e+300       3.68906e-07   3.45321e-07   -1e+300       2.67216e-07   -1e+300       1.69704e-07   -1.16475e-07  -6.93912e-08  -1e+300       -8.5182e-09   -1e+300       2.10247e-08   2.64542e-08   -1e+300       2.61776e-08   2.13646e-08   1.30071e-08   -1e+300       1.06081e-08   1.4749e-08    -1e+300       3.28251e-08   -1e+300       4.98838e-08   -5.23053e-08 
13.5          -1.84633e-08  8.49798e-08   -1e+300       1.99436e-07   -1e+300       2.98159e-07   3.34393e-07   -1e+300       3.88523e-07   4.10302e-07   4.14783e-07   -1e+300       3.98318e-07   3.77703e-07   -1e+300       3.05336e-07   -1e+300       2.09866e-07   -1.55232e-07  -1.04818e-07  -1e+300       -3.46467e-08  -1e+300       4.36876e-09   1.28994e-08   -1e+300       1.81447e-08   1.81043e-08   2.12448e-08   -1e+300       3.82325e-08   5.15848e-08   -1e+300       8.31281e-08   -1e+300       9.72925e-08   -9.30024e-08 
14            1.69388e-08   4.97293e-08   -1e+300       1.64019e-07   -1e+300       2.6204e-07    2.97801e-07   -1e+300       3.50748e-07   3.71536e-07   3.75394e-07   -1e+300       3.58163e-07   3.3763e-07    -1e+300       2.67568e-07   -1e+300       1.78771e-07   -1.29946e-07  -8.64581e-08  -1e+300       -2.93578e-08  -1e+300       -3.49375e-10  6.22279e-09   -1e+300       1.52455e-08   1.85833e-08   1.87799e-08   -1e+300       2.389e-09     -1.30359e-08  -1e+300       -5.38942e-08  -1e+300       -8.08713e-08  8.2274e-08   
14.5          1.77195e-08   4.89753e-08   -1e+300       1.62699e-07   -1e+300       2.59285e-07   2.9408e-07    -1e+300       3.44369e-07   3.62424e-07   3.64092e-07   -1e+300       3.41753e-07   3.18413e-07   -1e+300       2.42197e-07   -1e+300       1.49374e-07   -1.00066e-07  -5.75516e-08  -1e+300       -5.04801e-09  -1e+300       1.82159e-08   2.20024e-08   -1e+300       1.91525e-08   1.1405e-08    -5.69986e-09  -1e+300       -2.65403e-08  -3.4361e-08   -1e+300       -5.3688e-08   -1e+300       -8.16809e-08  9.609e-08    
15            -2.0388e-08   8.72872e-08   -1e+300       2.0202e-07    -1e+300       3.00454e-07   3.36348e-07   -1e+300       3.89316e-07   4.09709e-07   4.13e-07      -1e+300       3.93461e-07   3.70985e-07   -1e+300       2.93887e-07   -1e+300       1.9389e-07    -1.3742e-07   -8.598e-08    -1e+300       -1.61833e-08  -1e+300       2.0712e-08    2.84937e-08   -1e+300       3.13158e-08   2.65142e-08   1.58688e-08   -1e+300       1.15147e-08   1.73688e-08   -1e+300       4.78779e-08   -1e+300       8.55401e-08   -9.80794e-08 
15.5          -1.54214e-08  8.24739e-08   -1e+300       1.98011e-07   -1e+300       2.9802e-07    3.34911e-07   -1e+300       3.90553e-07   4.13671e-07   4.19145e-07   -1e+300       4.04861e-07   3.85377e-07   -1e+300       3.15386e-07   -1e+300       2.21391e-07   -1.66873e-07  -1.1598e-07   -1e+300       -4.3725e-08   -1e+300       -2.07414e-09  7.51537e-09   -1e+300       1.48951e-08   1.62795e-08   2.2402e-08    -1e+300       4.43572e-08   5.98697e-08   -1e+300       9.17412e-08   -1e+300       9.71086e-08   -8.60777e-08 
16            2.25924e-08   4.43036e-08   -1e+300       1.58838e-07   -1e+300       2.56901e-07   2.92614e-07   -1e+300       3.45339e-07   3.65851e-07   3.69483e-07   -1e+300       3.5175e-07    3.30982e-07   -1e+300       2.60627e-07   -1e+300       1.72231e-07   -1.24043e-07  -8.1468e-08   -1e+300       -2.63638e-08  -1e+300       1.00344e-09   7.19408e-09   -1e+300       1.48294e-08   1.57468e-08   8.90047e-09   -1e+300       -1.9867e-08   -4.02643e-08  -1e+300       -8.60177e-08  -1e+300       -1.10317e-07  1.07563e-07  
16.5          1.26446e-08   5.41972e-08   -1e+300       1.68197e-07   -1e+300       2.65067e-07   2.99988e-07   -1e+300       3.50507e-07   3.68685e-07   3.70389e-07   -1e+300       3.47934e-07   3.24391e-07   -1e+300       2.47204e-07   -1e+300       1.52566e-07   -1.0195e-07   -5.80566e-08  -1e+300       -3.36199e-09  -1e+300       2.12188e-08   2.52974e-08   -1e+300       2.26478e-08   1.49614e-08   -1.23927e-09  -1e+300       -1.75675e-08  -2.1732e-08   -1e+300       -3.14119e-08  -1e+300       -5.4323e-08   7.12247e-08  
17            -2.42187e-08  9.1212e-08    -1e+300       2.06271e-07   -1e+300       3.0525e-07    3.41467e-07   -1e+300       3.95245e-07   4.164e-07     4.20254e-07   -1e+300       4.01944e-07   3.80072e-07   -1e+300       3.0403e-07    -1e+300       2.04089e-07   -1.46992e-07  -9.44373e-08  -1e+300       -2.18253e-08  -1e+300       1.78632e-08   2.6594e-08    -1e+300       3.08392e-08   2.67555e-08   1.73907e-08   -1e+300       1.50187e-08   2.21061e-08   -1e+300       5.66483e-08   -1e+300       9.94287e-08   -1.14577e-07 
17.5          -9.62342e-09  7.6704e-08    -1e+300       1.92254e-07   -1e+300       2.92232e-07   3.29101e-07   -1e+300       3.84695e-07   4.07798e-07   4.13287e-07   -1e+300       3.99142e-07   3.79814e-07   -1e+300       3.10508e-07   -1e+300       2.17817e-07   -1.64298e-07  -1.14534e-07  -1e+300       -4.43248e-08  -1e+300       -4.29925e-09  4.81964e-09   -1e+300       1.28064e-08   1.57845e-08   2.51193e-08   -1e+300       4.8727e-08    6.22679e-08   -1e+300       8.13506e-08   -1e+300       7.01344e-08   -5.40703e-08 
18            2.54255e-08   4.14547e-08   -1e+300       1.55819e-07   -1e+300       2.5352e-07    2.89002e-07   -1e+300       3.41123e-07   3.61048e-07   3.64241e-07   -1e+300       3.4553e-07    3.24283e-07   -1e+300       2.53084e-07   -1e+300       1.64617e-07   -1.16874e-07  -7.50773e-08  -1e+300       -2.18616e-08  -1e+300       3.78403e-09   9.3519e-09    -1e+300       1.43701e-08   1.23088e-08   -7.49131e-10  -1e+300       -3.59487e-08  -5.71904e-08  -1e+300       -1.01184e-07  -1e+300       -1.23652e-07  1.2021e-07   
18.5          6.47407e-09   6.03935e-08   -1e+300       1.74502e-07   -1e+300       2.71556e-07   3.06579e-07   -1e+300       3.57328e-07   3.75673e-07   3.77468e-07   -1e+300       3.55064e-07   3.31431e-07   -1e+300       2.53566e-07   -1e+300       1.57356e-07   -1.0549e-07   -6.01932e-08  -1e+300       -3.07318e-09  -1e+300       2.31866e-08   2.77213e-08   -1e+300       2.57563e-08   1.84866e-08   3.46248e-09   -1e+300       -9.12578e-09  -1.01272e-08  -1e+300       -9.09031e-09  -1e+300       -2.07731e-08  3.57217e-08  
19            -2.62424e-08  9.3264e-08    -1e+300       2.08505e-07   -1e+300       3.07852e-07   3.443e-07     -1e+300       3.98686e-07   4.20438e-07   4.24756e-07   -1e+300       4.07501e-07   3.86185e-07   -1e+300       3.11289e-07   -1e+300       2.11902e-07   -1.54657e-07  -1.01573e-07  -1e+300       -2.72575e-08  -1e+300       1.43866e-08   2.38182e-08   -1e+300       2.91393e-08   2.57917e-08   1.82697e-08   -1e+300       1.91008e-08   2.7809e-08    -1e+300       6.57062e-08   -1e+300       1.09913e-07   -1.24708e-07 
19.5          -3.22964e-09  7.02957e-08   -1e+300       1.85743e-07   -1e+300       2.85524e-07   3.22274e-07   -1e+300       3.7759e-07    4.00463e-07   4.05802e-07   -1e+300       3.9145e-07    3.72101e-07   -1e+300       3.03143e-07   -1e+300       2.11628e-07   -1.59182e-07  -1.10736e-07  -1e+300       -4.31211e-08  -1e+300       -5.28567e-09  3.24856e-09   -1e+300       1.20288e-08   1.65418e-08   2.79749e-08   -1e+300       4.9205e-08    5.79758e-08   -1e+300       5.95454e-08   -1e+300       3.40878e-08   -1.68493e-08 
20            2.66638e-08   4.01928e-08   -1e+300       1.54391e-07   -1e+300       2.51753e-07   2.87021e-07   -1e+300       3.38575e-07   3.57941e-07   3.60693e-07   -1e+300       3.41011e-07   3.19256e-07   -1e+300       2.47051e-07   -1e+300       1.58167e-07   -1.10595e-07  -6.9268e-08   -1e+300       -1.73922e-08  -1e+300       6.853e-09     1.17613e-08   -1e+300       1.3929e-08    9.1901e-09    -8.18832e-09  -1e+300       -4.5121e-08   -6.51413e-08  -1e+300       -1.06085e-07  -1e+300       -1.29655e-07  1.28057e-07  
20.5          -5.14239e-11  6.69404e-08   -1e+300       1.8118e-07    -1e+300       2.78483e-07   3.13655e-07   -1e+300       3.64761e-07   3.83408e-07   3.85399e-07   -1e+300       3.63291e-07   3.39706e-07   -1e+300       2.61457e-07   -1e+300       1.63847e-07   -1.10723e-07  -6.39286e-08  -1e+300       -4.04463e-09  -1e+300       2.42786e-08   2.94062e-08   -1e+300       2.83459e-08   2.15347e-08   7.40539e-09   -1e+300       -2.67296e-09  -1.30196e-09  -1e+300       9.37694e-09   -1e+300       1.13826e-08   -1.86304e-09 
21            -2.66864e-08  9.37312e-08   -1e+300       2.09125e-07   -1e+300       3.08781e-07   3.45426e-07   -1e+300       4.00336e-07   4.22614e-07   4.27349e-07   -1e+300       4.11075e-07   3.90301e-07   -1e+300       3.16623e-07   -1e+300       2.18109e-07   -1.61018e-07  -1.07782e-07  -1e+300       -3.24947e-08  -1e+300       1.05153e-08   2.04625e-08   -1e+300       2.6622e-08    2.40467e-08   1.87513e-08   -1e+300       2.36667e-08   3.43457e-08   -1e+300       7.52117e-08   -1e+300       1.18007e-07   -1.3013e-07  
21.5          3.32516e-09   6.37157e-08   -1e+300       1.79014e-07   -1e+300       2.78512e-07   3.15093e-07   -1e+300       3.69996e-07   3.9251e-07    3.97599e-07   -1e+300       3.82813e-07   3.63325e-07   -1e+300       2.94469e-07   -1e+300       2.03992e-07   -1.52619e-07  -1.05552e-07  -1e+300       -4.07478e-08  -1e+300       -5.28836e-09  2.69845e-09   -1e+300       1.23711e-08   1.79606e-08   2.95001e-08   -1e+300       4.36622e-08   4.53657e-08   -1e+300       2.84346e-08   -1e+300       -5.38101e-09  1.98637e-08  
22            2.63081e-08   4.05321e-08   -1e+300       1.54602e-07   -1e+300       2.51691e-07   2.86782e-07   -1e+300       3.37859e-07   3.5674e-07    3.591e-07     -1e+300       3.38515e-07   3.16259e-07   -1e+300       2.4294e-07    -1e+300       1.53289e-07   -1.05582e-07  -6.43653e-08  -1e+300       -1.31763e-08  -1e+300       1.00981e-08   1.44219e-08   -1e+300       1.41116e-08   7.43756e-09   -1.2031e-08   -1e+300       -4.69305e-08  -6.44329e-08  -1e+300       -1.01709e-07  -1e+300       -1.28451e-07  1.30741e-07  
22.5          -6.54138e-09  7.34528e-08   -1e+300       1.8785e-07    -1e+300       2.85464e-07   3.20825e-07   -1e+300       3.72402e-07   3.91468e-07   3.93754e-07   -1e+300       3.72173e-07   3.48767e-07   -1e+300       2.70449e-07   -1e+300       1.71689e-07   -1.17368e-07  -6.90604e-08  -1e+300       -6.21258e-09  -1e+300       2.44632e-08   3.02876e-08   -1e+300       3.02627e-08   2.39359e-08   1.05408e-08   -1e+300       2.07205e-09   5.08686e-09   -1e+300       2.34891e-08   -1e+300       3.89165e-08   -3.66977e-08 
23            -2.55304e-08  9.25953e-08   -1e+300       2.08108e-07   -1e+300       3.08004e-07   3.44803e-07   -1e+300       4.00129e-07   4.22835e-07   4.27917e-07   -1e+300       4.12499e-07   3.92218e-07   -1e+300       3.1975e-07    -1e+300       2.22346e-07   -1.6568e-07   -1.12654e-07  -1e+300       -3.71651e-08  -1e+300       6.51628e-09   1.67373e-08   -1e+300       2.34663e-08   2.17313e-08   1.90767e-08   -1e+300       2.88094e-08   4.16351e-08   -1e+300       8.43869e-08   -1e+300       1.22354e-07   -1.2964e-07  
23.5          9.67284e-09   5.73355e-08   -1e+300       1.72451e-07   -1e+300       2.71599e-07   3.07971e-07   -1e+300       3.62355e-07   3.84405e-07   3.89166e-07   -1e+300       3.73748e-07   3.54019e-07   -1e+300       2.85034e-07   -1e+300       1.95432e-07   -1.45095e-07  -9.94066e-08  -1e+300       -3.74826e-08  -1e+300       -4.42406e-09  3.07832e-09   -1e+300       1.33549e-08   1.91273e-08   2.81925e-08   -1e+300       3.11532e-08   2.47879e-08   -1e+300       -7.60901e-09  -1e+300       -4.29703e-08  5.21146e-08  
24            2.43701e-08   4.24622e-08   -1e+300       1.56449e-07   -1e+300       2.53351e-07   2.88317e-07   -1e+300       3.3904e-07    3.57543e-07   3.59587e-07   -1e+300       3.38225e-07   3.15504e-07   -1e+300       2.41029e-07   -1e+300       1.50285e-07   -1.02129e-07  -6.06393e-08  -1e+300       -9.4195e-09   -1e+300       1.3419e-08    1.73434e-08   -1e+300       1.53306e-08   7.59618e-09   -1.20478e-08  -1e+300       -4.24706e-08  -5.6652e-08   -1e+300       -8.90899e-08  -1e+300       -1.19147e-07  1.26581e-07  
24.5          -1.26261e-08  7.95608e-08   -1e+300       1.94134e-07   -1e+300       2.92105e-07   3.27687e-07   -1e+300       3.79821e-07   3.99402e-07   4.02065e-07   -1e+300       3.8121e-07    3.58105e-07   -1e+300       2.80039e-07   -1e+300       1.80445e-07   -1.2506e-07   -7.53117e-08  -1e+300       -9.46138e-09  -1e+300       2.37464e-08   3.03438e-08   -1e+300       3.14494e-08   2.56551e-08   1.30315e-08   -1e+300       5.79143e-09   9.96528e-09   -1e+300       3.41871e-08   -1e+300       6.08781e-08   -6.58759e-08 
25            -2.28296e-08  8.99096e-08   -1e+300       2.05499e-07   -1e+300       3.0555e-07    3.42449e-07   -1e+300       3.98057e-07   4.21068e-07   4.26408e-07   -1e+300       4.11652e-07   3.91784e-07   -1e+300       3.20433e-07   -1e+300       2.24285e-07   -1.68276e-07  -1.15797e-07  -1e+300       -4.08828e-08  -1e+300       2.70899e-09   1.29285e-08   -1e+300       1.99828e-08   1.92367e-08   1.96615e-08   -1e+300       3.45656e-08   4.93183e-08   -1e+300       9.16085e-08   -1e+300       1.20631e-07   -1.21304e-07 
25.5          1.54067e-08   5.15653e-08   -1e+300       1.66475e-07   -1e+300       2.65234e-07   3.01369e-07   -1e+300       3.55161e-07   3.76669e-07   3.81038e-07   -1e+300       3.64837e-07   3.44776e-07   -1e+300       2.75443e-07   -1e+300       1.86507e-07   -1.37109e-07  -9.27242e-08  -1e+300       -3.3587e-08   -1e+300       -2.82916e-09  4.21729e-09   -1e+300       1.43482e-08   1.91327e-08   2.32324e-08   -1e+300       1.29835e-08   -6.39479e-10  -1e+300       -4.27608e-08  -1e+300       -7.4717e-08   7.80763e-08  
26            2.09466e-08   4.58865e-08   -1e+300       1.59842e-07   -1e+300       2.56654e-07   2.91553e-07   -1e+300       3.42071e-07   3.6033e-07    3.62155e-07   -1e+300       3.40192e-07   3.17077e-07   -1e+300       2.41471e-07   -1e+300       1.49368e-07   -1.00466e-07  -5.83267e-08  -1e+300       -6.34032e-09  -1e+300       1.66678e-08   2.0445e-08    -1e+300       1.76132e-08   9.55256e-09   -9.06717e-09  -1e+300       -3.39338e-08  -4.43295e-08  -1e+300       -6.98922e-08  -1e+300       -1.0102e-07   1.1364e-07   
26.5          -1.79364e-08  8.48945e-08   -1e+300       1.99654e-07   -1e+300       2.98007e-07   3.33829e-07   -1e+300       3.86576e-07   4.06732e-07   4.09833e-07   -1e+300       3.89864e-07   3.67165e-07   -1e+300       2.89655e-07   -1e+300       1.89604e-07   -1.33356e-07  -8.23333e-08  -1e+300       -1.36249e-08  -1e+300       2.21609e-08   2.95772e-08   -1e+300       3.18771e-08   2.66812e-08   1.50315e-08   -1e+300       9.14815e-09   1.43045e-08   -1e+300       4.29643e-08   -1e+300       7.80358e-08   -8.87246e-08 