# Probe 0 (-0.01 0 0)
# Probe 1 (-0.01 0.0009 0)
# Probe 2 (-0.0098 0.0017 0)  # Not Found
# Probe 3 (-0.0097 0.0026 0)
# Probe 4 (-0.0094 0.0034 0)  # Not Found
# Probe 5 (-0.0091 0.0042 0)
# Probe 6 (-0.0087 0.005 0)
# Probe 7 (-0.0082 0.0057 0)  # Not Found
# Probe 8 (-0.0077 0.0064 0)
# Probe 9 (-0.0071 0.0071 0)
# Probe 10 (-0.0064 0.0077 0)
# Probe 11 (-0.0057 0.0082 0)  # Not Found
# Probe 12 (-0.005 0.0087 0)
# Probe 13 (-0.0042 0.0091 0)
# Probe 14 (-0.0034 0.0094 0)  # Not Found
# Probe 15 (-0.0026 0.0097 0)
# Probe 16 (-0.0017 0.0098 0)  # Not Found
# Probe 17 (-0.0009 0.01 0)
# Probe 18 (0 0.01 0)
# Probe 19 (0.0009 0.01 0)
# Probe 20 (0.0017 0.0098 0)  # Not Found
# Probe 21 (0.0026 0.0097 0)
# Probe 22 (0.0034 0.0094 0)  # Not Found
# Probe 23 (0.0042 0.0091 0)
# Probe 24 (0.005 0.0087 0)
# Probe 25 (0.0057 0.0082 0)  # Not Found
# Probe 26 (0.0064 0.0077 0)
# Probe 27 (0.0071 0.0071 0)
# Probe 28 (0.0077 0.0064 0)
# Probe 29 (0.0082 0.0057 0)  # Not Found
# Probe 30 (0.0087 0.005 0)
# Probe 31 (0.0091 0.0042 0)
# Probe 32 (0.0094 0.0034 0)  # Not Found
# Probe 33 (0.0097 0.0026 0)
# Probe 34 (0.0098 0.0017 0)  # Not Found
# Probe 35 (0.01 0.0009 0)
# Probe 36 (0.01 0 0)
# Time        0             1             2             3             4             5             6             7             8             9             10            11            12            13            14            15            16            17            18            19            20            21            22            23            24            25            26            27            28            29            30            31            32            33            34            35            36           
0.5           (0.00164101 0.00115802 7.60971e-23) (0.00252632 0.0103483 9.32247e-21) (-1e+300 -1e+300 -1e+300) (0.00938928 0.0292252 1.85121e-21) (-1e+300 -1e+300 -1e+300) (0.0214681 0.0429605 -1.71133e-20) (0.0277521 0.046756 1.50435e-21) (-1e+300 -1e+300 -1e+300) (0.0417243 0.0493493 2.84147e-22) (0.0481955 0.04725 -1.06615e-20) (0.0521109 0.0439376 -1.96122e-21) (-1e+300 -1e+300 -1e+300) (0.0553116 0.0324635 3.27558e-21) (0.0538722 0.0263684 3.02656e-20) (-1e+300 -1e+300 -1e+300) (0.0444123 0.0130141 4.52717e-21) (-1e+300 -1e+300 -1e+300) (0.0291046 0.00333772 -9.56632e-21) (0.0200758 0.000384623 1.46239e-22) (0.0134603 -0.00076027 9.1153e-21) (-1e+300 -1e+300 -1e+300) (0.00242729 -0.000530122 -2.11139e-21) (-1e+300 -1e+300 -1e+300) (-0.00267199 0.00119605 -3.04709e-20) (-0.00339992 0.00180112 -3.68001e-21) (-1e+300 -1e+300 -1e+300) (-0.00258367 0.00179359 3.52696e-21) (-0.00190097 0.00157174 2.46433e-20) (-0.00187426 0.00230055 -3.53841e-21) (-1e+300 -1e+300 -1e+300) (-0.00428046 0.00865764 3.49632e-21) (-0.00534599 0.0131028 -2.75299e-20) (-1e+300 -1e+300 -1e+300) (-0.00494053 0.019254 3.01857e-21) (-1e+300 -1e+300 -1e+300) (-0.00208642 0.0096596 5.11716e-21) (-0.00153237 0.0011261 3.95195e-23)
1             (0.00154991 0.00110345 7.74932e-23) (0.00239183 0.00985798 9.50532e-21) (-1e+300 -1e+300 -1e+300) (0.00890175 0.0277805 1.90616e-21) (-1e+300 -1e+300 -1e+300) (0.0202706 0.0406488 -1.83504e-20) (0.0261251 0.0441072 1.67877e-21) (-1e+300 -1e+300 -1e+300) (0.038891 0.0461101 2.71061e-23) (0.0445725 0.0438199 -8.10048e-21) (0.0478203 0.0404457 -1.59541e-21) (-1e+300 -1e+300 -1e+300) (0.049571 0.029216 2.78327e-21) (0.0476059 0.0234198 2.5787e-20) (-1e+300 -1e+300 -1e+300) (0.037603 0.0111051 3.81088e-21) (-1e+300 -1e+300 -1e+300) (0.0230749 0.0026941 -7.88825e-21) (0.0150751 0.00032099 1.18779e-22) (0.00948473 -0.000513706 7.33224e-21) (-1e+300 -1e+300 -1e+300) (0.000816138 -0.000157289 -1.67602e-21) (-1e+300 -1e+300 -1e+300) (-0.00264477 0.00116482 -2.40808e-20) (-0.00294571 0.00153612 -2.91696e-21) (-1e+300 -1e+300 -1e+300) (-0.00199661 0.00142881 2.81206e-21) (-0.00158727 0.00141655 1.96536e-20) (-0.00171259 0.0021559 -2.81417e-21) (-1e+300 -1e+300 -1e+300) (-0.00316316 0.00619648 2.77633e-21) (-0.00362597 0.00853118 -2.19179e-20) (-1e+300 -1e+300 -1e+300) (-0.00295048 0.0109702 2.50856e-21) (-1e+300 -1e+300 -1e+300) (-0.00109026 0.00523041 4.58138e-21) (-0.000750087 0.000606499 3.57189e-23)
1.5           (0.00150717 0.00107772 7.8518e-23) (0.00232878 0.00962697 9.63771e-21) (-1e+300 -1e+300 -1e+300) (0.00867448 0.0271037 1.94342e-21) (-1e+300 -1e+300 -1e+300) (0.0197192 0.0395787 -1.91141e-20) (0.0253816 0.0428901 1.78343e-21) (-1e+300 -1e+300 -1e+300) (0.0376261 0.0446542 -1.15162e-22) (0.0429816 0.0423027 -6.73823e-21) (0.0459662 0.0389249 -1.40526e-21) (-1e+300 -1e+300 -1e+300) (0.0471987 0.0278612 2.53924e-21) (0.0450782 0.0222164 2.36145e-20) (-1e+300 -1e+300 -1e+300) (0.0350308 0.0103723 3.47842e-21) (-1e+300 -1e+300 -1e+300) (0.0209834 0.00246483 -7.13628e-21) (0.0134393 0.000296316 1.06672e-22) (0.00825429 -0.000440039 6.55254e-21) (-1e+300 -1e+300 -1e+300) (0.00040991 -6.44315e-05 -1.48579e-21) (-1e+300 -1e+300 -1e+300) (-0.00257659 0.00113538 -2.12508e-20) (-0.00281624 0.00148457 -2.57279e-21) (-1e+300 -1e+300 -1e+300) (-0.00206706 0.00155368 2.47064e-21) (-0.00169897 0.00155542 1.72074e-20) (-0.001614 0.00197242 -2.45054e-21) (-1e+300 -1e+300 -1e+300) (-0.00219218 0.00416739 2.41653e-21) (-0.00234221 0.00535294 -1.91376e-20) (-1e+300 -1e+300 -1e+300) (-0.00174494 0.00633041 2.26562e-21) (-1e+300 -1e+300 -1e+300) (-0.000593235 0.00293177 4.31788e-21) (-0.000389748 0.000338924 3.37693e-23)
2             (0.00148053 0.00106166 7.89351e-23) (0.00228952 0.00948247 9.69365e-21) (-1e+300 -1e+300 -1e+300) (0.00853409 0.0266833 1.96146e-21) (-1e+300 -1e+300 -1e+300) (0.0193837 0.0389236 -1.95351e-20) (0.0249335 0.0421517 1.84293e-21) (-1e+300 -1e+300 -1e+300) (0.0368842 0.0437938 -1.99983e-22) (0.042067 0.0414225 -5.91922e-21) (0.0449188 0.0380561 -1.29094e-21) (-1e+300 -1e+300 -1e+300) (0.0459182 0.0271225 2.39432e-21) (0.043746 0.0215754 2.23359e-20) (-1e+300 -1e+300 -1e+300) (0.033756 0.0100049 3.28805e-21) (-1e+300 -1e+300 -1e+300) (0.0200215 0.00235757 -6.71576e-21) (0.0127237 0.000284539 9.99791e-23) (0.00774178 -0.000409892 6.12375e-21) (-1e+300 -1e+300 -1e+300) (0.000275227 -3.4043e-05 -1.3813e-21) (-1e+300 -1e+300 -1e+300) (-0.00252456 0.00111527 -1.96865e-20) (-0.00276142 0.00147013 -2.38113e-21) (-1e+300 -1e+300 -1e+300) (-0.00215971 0.0016653 2.2774e-21) (-0.00180079 0.00166313 1.58157e-20) (-0.00156908 0.00186868 -2.24282e-21) (-1e+300 -1e+300 -1e+300) (-0.00164727 0.00304521 2.21129e-21) (-0.00164284 0.00366473 -1.75479e-20) (-1e+300 -1e+300 -1e+300) (-0.00112423 0.00400898 2.11669e-21) (-1e+300 -1e+300 -1e+300) (-0.000357942 0.00180573 4.11576e-21) (-0.00022714 0.000208324 3.22091e-23)
2.5           (0.00146366 0.00105126 7.92554e-23) (0.00226466 0.00939054 9.73601e-21) (-1e+300 -1e+300 -1e+300) (0.00844559 0.0264174 1.97441e-21) (-1e+300 -1e+300 -1e+300) (0.0191742 0.038513 -1.98206e-20) (0.0246552 0.0416914 1.88266e-21) (-1e+300 -1e+300 -1e+300) (0.0364313 0.0432663 -2.54498e-22) (0.0415153 0.0408894 -5.40246e-21) (0.0442944 0.0375364 -1.21959e-21) (-1e+300 -1e+300 -1e+300) (0.0451795 0.0266939 2.30602e-21) (0.0429903 0.0212094 2.15645e-20) (-1e+300 -1e+300 -1e+300) (0.033065 0.00980401 3.1757e-21) (-1e+300 -1e+300 -1e+300) (0.0195301 0.00230202 -6.47138e-21) (0.0123738 0.000278359 9.61121e-23) (0.00750265 -0.000396056 5.87656e-21) (-1e+300 -1e+300 -1e+300) (0.000229092 -2.38909e-05 -1.32085e-21) (-1e+300 -1e+300 -1e+300) (-0.00248578 0.00109983 -1.87771e-20) (-0.00272834 0.0014609 -2.26925e-21) (-1e+300 -1e+300 -1e+300) (-0.0022268 0.00174236 2.16416e-21) (-0.0018811 0.00174821 1.49988e-20) (-0.00157248 0.0018443 -2.12027e-21) (-1e+300 -1e+300 -1e+300) (-0.00136323 0.00245594 2.08901e-21) (-0.00126985 0.0027691 -1.65947e-20) (-1e+300 -1e+300 -1e+300) (-0.000793327 0.00278583 2.02209e-21) (-1e+300 -1e+300 -1e+300) (-0.000237881 0.0012153 3.97126e-21) (-0.000146821 0.000139207 3.10778e-23)
3             (0.00145243 0.00104479 7.95527e-23) (0.00224816 0.00932971 9.77435e-21) (-1e+300 -1e+300 -1e+300) (0.00838707 0.0262412 1.98506e-21) (-1e+300 -1e+300 -1e+300) (0.0190366 0.0382426 -2.00319e-20) (0.0244734 0.0413897 1.91118e-21) (-1e+300 -1e+300 -1e+300) (0.0361398 0.0429254 -2.91151e-22) (0.0411639 0.0405484 -5.06474e-21) (0.0439006 0.0372074 -1.17365e-21) (-1e+300 -1e+300 -1e+300) (0.0447263 0.0264295 2.2508e-21) (0.0425338 0.020987 2.10872e-20) (-1e+300 -1e+300 -1e+300) (0.0326648 0.00968679 3.10757e-21) (-1e+300 -1e+300 -1e+300) (0.0192617 0.00227127 -6.32498e-21) (0.0121914 0.000274933 9.3803e-23) (0.00738447 -0.000389314 5.72903e-21) (-1e+300 -1e+300 -1e+300) (0.000216157 -2.11949e-05 -1.28465e-21) (-1e+300 -1e+300 -1e+300) (-0.00245712 0.00108794 -1.82276e-20) (-0.00270453 0.00145258 -2.20141e-21) (-1e+300 -1e+300 -1e+300) (-0.00226593 0.0017881 2.09561e-21) (-0.00193544 0.00180759 1.45052e-20) (-0.00159408 0.0018567 -2.04596e-21) (-1e+300 -1e+300 -1e+300) (-0.001227 0.00216663 2.01399e-21) (-0.00108014 0.00231026 -1.60051e-20) (-1e+300 -1e+300 -1e+300) (-0.000618614 0.00214196 1.96056e-21) (-1e+300 -1e+300 -1e+300) (-0.000175579 0.000904079 3.86985e-21) (-0.000105902 0.00010425 3.02798e-23)
3.5           (0.00144465 0.00103952 7.96012e-23) (0.00223668 0.00928678 9.78211e-21) (-1e+300 -1e+300 -1e+300) (0.00834654 0.0261187 1.98886e-21) (-1e+300 -1e+300 -1e+300) (0.0189421 0.0380563 -2.01445e-20) (0.0243491 0.0411827 1.92782e-21) (-1e+300 -1e+300 -1e+300) (0.0359429 0.0426944 -3.16137e-22) (0.0409288 0.0403194 -4.82284e-21) (0.0436394 0.0369884 -1.14007e-21) (-1e+300 -1e+300 -1e+300) (0.0444331 0.0262576 2.20947e-21) (0.0422424 0.0208442 2.07288e-20) (-1e+300 -1e+300 -1e+300) (0.032419 0.00961429 3.05676e-21) (-1e+300 -1e+300 -1e+300) (0.0191061 0.00225322 -6.21702e-21) (0.0120908 0.000272916 9.21139e-23) (0.00732347 -0.000385899 5.6216e-21) (-1e+300 -1e+300 -1e+300) (0.000216038 -2.13269e-05 -1.25845e-21) (-1e+300 -1e+300 -1e+300) (-0.00243591 0.00107886 -1.78303e-20) (-0.00268645 0.0014449 -2.15236e-21) (-1e+300 -1e+300 -1e+300) (-0.00228518 0.00181186 2.04652e-21) (-0.00196718 0.0018435 1.41546e-20) (-0.00161441 0.00187553 -1.99374e-21) (-1e+300 -1e+300 -1e+300) (-0.00116459 0.0020297 1.96087e-21) (-0.000986133 0.0020793 -1.55838e-20) (-1e+300 -1e+300 -1e+300) (-0.000526538 0.00180145 1.91421e-21) (-1e+300 -1e+300 -1e+300) (-0.000142593 0.000735685 3.78823e-21) (-8.45619e-05 8.2844e-05 2.96381e-23)
4             (0.00143908 0.00103662 7.96483e-23) (0.00222854 0.0092569 9.78915e-21) (-1e+300 -1e+300 -1e+300) (0.00831785 0.0260321 1.9919e-21) (-1e+300 -1e+300 -1e+300) (0.0188755 0.0379246 -2.02293e-20) (0.0242616 0.0410368 1.94018e-21) (-1e+300 -1e+300 -1e+300) (0.0358057 0.042533 -3.34243e-22) (0.040766 0.0401605 -4.64941e-21) (0.0434598 0.0368374 -1.11614e-21) (-1e+300 -1e+300 -1e+300) (0.0442356 0.0261413 2.18041e-21) (0.0420483 0.0207487 2.04781e-20) (-1e+300 -1e+300 -1e+300) (0.0322608 0.00956732 3.02164e-21) (-1e+300 -1e+300 -1e+300) (0.0190113 0.00224208 -6.14299e-21) (0.0120327 0.000271681 9.09584e-23) (0.00729078 -0.000384101 5.54814e-21) (-1e+300 -1e+300 -1e+300) (0.000220312 -2.23855e-05 -1.24052e-21) (-1e+300 -1e+300 -1e+300) (-0.00242046 0.00107218 -1.75567e-20) (-0.00267301 0.00143863 -2.11851e-21) (-1e+300 -1e+300 -1e+300) (-0.00229324 0.00182296 2.01274e-21) (-0.00198402 0.00186329 1.39147e-20) (-0.00162865 0.00189069 -1.9583e-21) (-1e+300 -1e+300 -1e+300) (-0.00113742 0.00196742 1.92461e-21) (-0.000941008 0.00196632 -1.52951e-20) (-1e+300 -1e+300 -1e+300) (-0.000479033 0.0016249 1.88125e-21) (-1e+300 -1e+300 -1e+300) (-0.000125318 0.000648628 3.72784e-21) (-7.32754e-05 7.45201e-05 2.9163e-23)
4.5           (0.00143501 0.00103417 7.9812e-23) (0.00222255 0.00923471 9.80985e-21) (-1e+300 -1e+300 -1e+300) (0.00829681 0.0259684 1.99716e-21) (-1e+300 -1e+300 -1e+300) (0.0188268 0.0378284 -2.03214e-20) (0.0241979 0.0409304 1.9521e-21) (-1e+300 -1e+300 -1e+300) (0.0357065 0.0424161 -3.48043e-22) (0.040649 0.040046 -4.52869e-21) (0.0433314 0.0367292 -1.10019e-21) (-1e+300 -1e+300 -1e+300) (0.0440964 0.0260591 2.16238e-21) (0.0419127 0.0206817 2.03258e-20) (-1e+300 -1e+300 -1e+300) (0.0321531 0.00953519 3.00086e-21) (-1e+300 -1e+300 -1e+300) (0.0189495 0.00223475 -6.09951e-21) (0.0119965 0.000270875 9.02767e-23) (0.00727191 -0.000383081 5.50459e-21) (-1e+300 -1e+300 -1e+300) (0.000225498 -2.36119e-05 -1.22975e-21) (-1e+300 -1e+300 -1e+300) (-0.00240906 0.00106727 -1.73891e-20) (-0.00266302 0.00143379 -2.09766e-21) (-1e+300 -1e+300 -1e+300) (-0.00229536 0.0018271 1.99181e-21) (-0.00199144 0.00187246 1.37662e-20) (-0.00163578 0.0018985 -1.93645e-21) (-1e+300 -1e+300 -1e+300) (-0.00112363 0.00193539 1.90225e-21) (-0.000917397 0.0019067 -1.51167e-20) (-1e+300 -1e+300 -1e+300) (-0.000453292 0.00152875 1.86064e-21) (-1e+300 -1e+300 -1e+300) (-0.000115833 0.000599824 3.68977e-21) (-6.71498e-05 6.84898e-05 2.88646e-23)
5             (0.001432 0.00103123 7.97957e-23) (0.00221806 0.00921725 9.80872e-21) (-1e+300 -1e+300 -1e+300) (0.00828114 0.0259206 1.99788e-21) (-1e+300 -1e+300 -1e+300) (0.018791 0.0377573 -2.03584e-20) (0.0241513 0.0408522 1.95796e-21) (-1e+300 -1e+300 -1e+300) (0.0356349 0.0423315 -3.57639e-22) (0.0405655 0.0399639 -4.43422e-21) (0.0432405 0.0366522 -1.08703e-21) (-1e+300 -1e+300 -1e+300) (0.0440005 0.0260022 2.14632e-21) (0.0418208 0.020636 2.01876e-20) (-1e+300 -1e+300 -1e+300) (0.0320839 0.00951432 2.98178e-21) (-1e+300 -1e+300 -1e+300) (0.018914 0.00223039 -6.05994e-21) (0.0119786 0.000270377 8.96652e-23) (0.00726531 -0.000382796 5.46593e-21) (-1e+300 -1e+300 -1e+300) (0.00023305 -2.54007e-05 -1.22038e-21) (-1e+300 -1e+300 -1e+300) (-0.00239951 0.00106316 -1.72462e-20) (-0.00265501 0.0014298 -2.07995e-21) (-1e+300 -1e+300 -1e+300) (-0.00229568 0.00182883 1.97419e-21) (-0.00199545 0.00187767 1.36419e-20) (-0.00164054 0.00190408 -1.91833e-21) (-1e+300 -1e+300 -1e+300) (-0.00111738 0.00192012 1.88376e-21) (-0.000905378 0.00187573 -1.49687e-20) (-1e+300 -1e+300 -1e+300) (-0.000438995 0.00147461 1.84299e-21) (-1e+300 -1e+300 -1e+300) (-0.000110353 0.000569219 3.65609e-21) (-6.37435e-05 6.11629e-05 2.86003e-23)
5.5           (0.00142979 0.00103223 7.98791e-23) (0.00221499 0.0092074 9.81922e-21) (-1e+300 -1e+300 -1e+300) (0.00827029 0.0258881 2.00057e-21) (-1e+300 -1e+300 -1e+300) (0.0187657 0.0377073 -2.04062e-20) (0.0241182 0.0407969 1.96418e-21) (-1e+300 -1e+300 -1e+300) (0.035584 0.0422713 -3.64891e-22) (0.0405061 0.0399055 -4.37084e-21) (0.0431761 0.0365976 -1.07868e-21) (-1e+300 -1e+300 -1e+300) (0.0439331 0.0259621 2.13699e-21) (0.0417566 0.020604 2.01093e-20) (-1e+300 -1e+300 -1e+300) (0.0320364 0.00949997 2.97131e-21) (-1e+300 -1e+300 -1e+300) (0.0188903 0.0022275 -6.03831e-21) (0.011967 0.000270077 8.93277e-23) (0.00726134 -0.000382598 5.44438e-21) (-1e+300 -1e+300 -1e+300) (0.000238024 -2.65285e-05 -1.21502e-21) (-1e+300 -1e+300 -1e+300) (-0.00239378 0.00106072 -1.71618e-20) (-0.00265025 0.00142739 -2.06939e-21) (-1e+300 -1e+300 -1e+300) (-0.0022951 0.00182899 1.96358e-21) (-0.00199676 0.00187954 1.3567e-20) (-0.00164257 0.0019065 -1.90746e-21) (-1e+300 -1e+300 -1e+300) (-0.00111507 0.0019142 1.87273e-21) (-0.00090065 0.00186337 -1.48805e-20) (-1e+300 -1e+300 -1e+300) (-0.000433549 0.00145488 1.83234e-21) (-1e+300 -1e+300 -1e+300) (-0.000108433 0.00056654 3.63536e-21) (-6.19717e-05 7.20507e-05 2.84365e-23)
6             (0.00142804 0.00102809 7.99683e-23) (0.00221218 0.00919489 9.83056e-21) (-1e+300 -1e+300 -1e+300) (0.00826055 0.025858 2.00339e-21) (-1e+300 -1e+300 -1e+300) (0.0187438 0.0376637 -2.04534e-20) (0.0240899 0.0407494 1.97018e-21) (-1e+300 -1e+300 -1e+300) (0.0355409 0.0422202 -3.71474e-22) (0.0404559 0.0398562 -4.31493e-21) (0.0431216 0.0365515 -1.07142e-21) (-1e+300 -1e+300 -1e+300) (0.0438759 0.0259282 2.12908e-21) (0.0417019 0.0205768 2.00435e-20) (-1e+300 -1e+300 -1e+300) (0.0319954 0.0094876 2.96258e-21) (-1e+300 -1e+300 -1e+300) (0.0188693 0.00222493 -6.02033e-21) (0.0119563 0.000269786 8.90468e-23) (0.00725734 -0.000382421 5.42645e-21) (-1e+300 -1e+300 -1e+300) (0.000242381 -2.75587e-05 -1.21057e-21) (-1e+300 -1e+300 -1e+300) (-0.00238831 0.00105841 -1.70919e-20) (-0.00264568 0.00142514 -2.06067e-21) (-1e+300 -1e+300 -1e+300) (-0.0022942 0.00182881 1.95478e-21) (-0.00199702 0.00188015 1.35048e-20) (-0.00164245 0.00190605 -1.8984e-21) (-1e+300 -1e+300 -1e+300) (-0.0011096 0.00190249 1.86357e-21) (-0.000892708 0.0018438 -1.48075e-20) (-1e+300 -1e+300 -1e+300) (-0.000424942 0.00142129 1.82379e-21) (-1e+300 -1e+300 -1e+300) (-0.000104999 0.000536293 3.61967e-21) (-6.06813e-05 4.87603e-05 2.83168e-23)
6.5           (0.00142672 0.0010307 7.99634e-23) (0.00221052 0.00919098 9.83013e-21) (-1e+300 -1e+300 -1e+300) (0.00825473 0.0258408 2.00365e-21) (-1e+300 -1e+300 -1e+300) (0.0187302 0.0376367 -2.04675e-20) (0.0240722 0.0407196 1.97241e-21) (-1e+300 -1e+300 -1e+300) (0.0355143 0.0421885 -3.75093e-22) (0.0404257 0.0398261 -4.27969e-21) (0.0430896 0.036524 -1.06656e-21) (-1e+300 -1e+300 -1e+300) (0.0438453 0.0259096 2.12333e-21) (0.0416745 0.0205627 1.99947e-20) (-1e+300 -1e+300 -1e+300) (0.0319797 0.00948253 2.95614e-21) (-1e+300 -1e+300 -1e+300) (0.0188669 0.00222443 -6.00751e-21) (0.0119594 0.000269721 8.88525e-23) (0.00726317 -0.000382824 5.41428e-21) (-1e+300 -1e+300 -1e+300) (0.000249463 -2.92137e-05 -1.20764e-21) (-1e+300 -1e+300 -1e+300) (-0.00238348 0.00105629 -1.70465e-20) (-0.00264198 0.00142314 -2.05499e-21) (-1e+300 -1e+300 -1e+300) (-0.00229372 0.0018288 1.94912e-21) (-0.0019985 0.00188221 1.3465e-20) (-0.00164621 0.00191125 -1.89262e-21) (-1e+300 -1e+300 -1e+300) (-0.0011147 0.00191174 1.85748e-21) (-0.000897288 0.00185366 -1.47576e-20) (-1e+300 -1e+300 -1e+300) (-0.000427839 0.00143288 1.81706e-21) (-1e+300 -1e+300 -1e+300) (-0.000106046 0.000555369 3.60501e-21) (-6.0254e-05 7.27131e-05 2.81964e-23)
7             (0.00142563 0.00102533 7.99595e-23) (0.00220857 0.00918057 9.83026e-21) (-1e+300 -1e+300 -1e+300) (0.0082481 0.0258199 2.00412e-21) (-1e+300 -1e+300 -1e+300) (0.0187158 0.0376078 -2.04855e-20) (0.0240536 0.0406884 1.97515e-21) (-1e+300 -1e+300 -1e+300) (0.0354863 0.0421554 -3.79329e-22) (0.040393 0.039794 -4.23865e-21) (0.0430539 0.0364939 -1.06088e-21) (-1e+300 -1e+300 -1e+300) (0.0438067 0.0258869 2.1164e-21) (0.0416367 0.0205442 1.99349e-20) (-1e+300 -1e+300 -1e+300) (0.0319487 0.00947345 2.94772e-21) (-1e+300 -1e+300 -1e+300) (0.0188472 0.00222223 -5.98957e-21) (0.0119462 0.000269542 8.85696e-23) (0.00725439 -0.000382245 5.39613e-21) (-1e+300 -1e+300 -1e+300) (0.000247296 -2.86231e-05 -1.20313e-21) (-1e+300 -1e+300 -1e+300) (-0.00238347 0.00105643 -1.69765e-20) (-0.00264182 0.0014232 -2.04629e-21) (-1e+300 -1e+300 -1e+300) (-0.00229221 0.00182721 1.94044e-21) (-0.00199532 0.0018784 1.34044e-20) (-0.0016405 0.00190338 -1.88408e-21) (-1e+300 -1e+300 -1e+300) (-0.00110632 0.001896 1.84944e-21) (-0.000889218 0.00183578 -1.46955e-20) (-1e+300 -1e+300 -1e+300) (-0.000423058 0.00141612 1.81024e-21) (-1e+300 -1e+300 -1e+300) (-0.000104754 0.000546578 3.59304e-21) (-5.97702e-05 6.76067e-05 2.81087e-23)
7.5           (0.00142504 0.00103005 7.9948e-23) (0.00220803 0.00918203 9.82862e-21) (-1e+300 -1e+300 -1e+300) (0.00824581 0.0258139 2.00382e-21) (-1e+300 -1e+300 -1e+300) (0.0187094 0.0375956 -2.04848e-20) (0.0240449 0.040674 1.97528e-21) (-1e+300 -1e+300 -1e+300) (0.0354721 0.0421386 -3.80131e-22) (0.0403763 0.0397776 -4.22914e-21) (0.043036 0.0364786 -1.05947e-21) (-1e+300 -1e+300 -1e+300) (0.0437891 0.0258761 2.1146e-21) (0.0416211 0.0205361 1.99195e-20) (-1e+300 -1e+300 -1e+300) (0.0319409 0.00947071 2.94587e-21) (-1e+300 -1e+300 -1e+300) (0.0188492 0.00222213 -5.98654e-21) (0.0119525 0.000269393 8.85331e-23) (0.00726303 -0.000382969 5.39432e-21) (-1e+300 -1e+300 -1e+300) (0.000257352 -3.11622e-05 -1.20289e-21) (-1e+300 -1e+300 -1e+300) (-0.00237527 0.00105275 -1.69759e-20) (-0.00263526 0.00141979 -2.04627e-21) (-1e+300 -1e+300 -1e+300) (-0.0022926 0.00182874 1.94045e-21) (-0.00199917 0.0018835 1.34037e-20) (-0.00164657 0.00191144 -1.88363e-21) (-1e+300 -1e+300 -1e+300) (-0.00110789 0.00189706 1.84827e-21) (-0.000886876 0.00182778 -1.46837e-20) (-1e+300 -1e+300 -1e+300) (-0.000415244 0.00138172 1.80845e-21) (-1e+300 -1e+300 -1e+300) (-0.000100569 0.00049463 3.58979e-21) (-5.90289e-05 1.4876e-05 2.80819e-23)
8             (0.00142548 0.00103947 8.00036e-23) (0.00220944 0.00919315 9.83481e-21) (-1e+300 -1e+300 -1e+300) (0.00825075 0.0258297 2.00456e-21) (-1e+300 -1e+300 -1e+300) (0.0187204 0.0376169 -2.04773e-20) (0.0240597 0.040698 1.97338e-21) (-1e+300 -1e+300 -1e+300) (0.0354981 0.042168 -3.75306e-22) (0.0404101 0.0398091 -4.28276e-21) (0.0430765 0.036511 -1.06739e-21) (-1e+300 -1e+300 -1e+300) (0.0438444 0.0259072 2.12551e-21) (0.0416818 0.0205645 2.00176e-20) (-1e+300 -1e+300 -1e+300) (0.032007 0.00948926 2.96087e-21) (-1e+300 -1e+300 -1e+300) (0.0189071 0.00222832 -6.0201e-21) (0.0120004 0.000270008 8.90697e-23) (0.0073013 -0.000385349 5.42882e-21) (-1e+300 -1e+300 -1e+300) (0.000274657 -3.52298e-05 -1.21133e-21) (-1e+300 -1e+300 -1e+300) (-0.00237125 0.0010509 -1.71028e-20) (-0.00263333 0.00141825 -2.06177e-21) (-1e+300 -1e+300 -1e+300) (-0.00228767 0.00182319 1.95567e-21) (-0.00199293 0.00187635 1.35112e-20) (-0.00164251 0.00190702 -1.89937e-21) (-1e+300 -1e+300 -1e+300) (-0.001118 0.00191956 1.86448e-21) (-0.000903941 0.00187094 -1.48142e-20) (-1e+300 -1e+300 -1e+300) (-0.000438359 0.00147897 1.82376e-21) (-1e+300 -1e+300 -1e+300) (-0.000111254 0.000633096 3.6163e-21) (-5.99911e-05 0.000160852 2.82711e-23)
8.5           (0.00142879 0.000986351 7.97373e-23) (0.0022102 0.00915844 9.80421e-21) (-1e+300 -1e+300 -1e+300) (0.00825619 0.0258358 1.99735e-21) (-1e+300 -1e+300 -1e+300) (0.0187444 0.0376598 -2.03559e-20) (0.024096 0.0407548 1.95759e-21) (-1e+300 -1e+300 -1e+300) (0.035569 0.0422486 -3.56799e-22) (0.040503 0.039897 -4.44896e-21) (0.0431872 0.0366011 -1.0898e-21) (-1e+300 -1e+300 -1e+300) (0.0439897 0.02599 2.15265e-21) (0.0418376 0.0206386 2.02533e-20) (-1e+300 -1e+300 -1e+300) (0.0321686 0.00953494 2.99599e-21) (-1e+300 -1e+300 -1e+300) (0.0190446 0.00224283 -6.09951e-21) (0.0121142 0.000271119 9.03705e-23) (0.00739405 -0.000391567 5.51428e-21) (-1e+300 -1e+300 -1e+300) (0.000323751 -4.74158e-05 -1.23323e-21) (-1e+300 -1e+300 -1e+300) (-0.00235113 0.00104217 -1.74516e-20) (-0.00262233 0.00141301 -2.10506e-21) (-1e+300 -1e+300 -1e+300) (-0.00228766 0.00182341 1.99824e-21) (-0.00198953 0.00187132 1.38067e-20) (-0.00162658 0.00188301 -1.94121e-21) (-1e+300 -1e+300 -1e+300) (-0.0010721 0.00182868 1.90726e-21) (-0.000849622 0.00174344 -1.5163e-20) (-1e+300 -1e+300 -1e+300) (-0.000387619 0.00127731 1.87191e-21) (-1e+300 -1e+300 -1e+300) (-9.09649e-05 0.0003932 3.7243e-21) (-5.71649e-05 -8.05542e-05 2.91537e-23)
9             (0.00144487 0.00108183 7.89922e-23) (0.00224022 0.00932616 9.70277e-21) (-1e+300 -1e+300 -1e+300) (0.00835868 0.0261573 1.96767e-21) (-1e+300 -1e+300 -1e+300) (0.0189726 0.0381101 -1.9758e-20) (0.0243949 0.0412503 1.87673e-21) (-1e+300 -1e+300 -1e+300) (0.0360516 0.0428082 -2.54112e-22) (0.0410955 0.0404651 -5.39059e-21) (0.0438656 0.0371598 -1.21771e-21) (-1e+300 -1e+300 -1e+300) (0.0448284 0.02647 2.30744e-21) (0.0427209 0.0210594 2.15964e-20) (-1e+300 -1e+300 -1e+300) (0.0330553 0.00978586 3.19307e-21) (-1e+300 -1e+300 -1e+300) (0.0197783 0.00232065 -6.5382e-21) (0.0127102 0.00027745 9.74732e-23) (0.0078691 -0.000422731 5.97685e-21) (-1e+300 -1e+300 -1e+300) (0.00055192 -0.000103218 -1.34994e-21) (-1e+300 -1e+300 -1e+300) (-0.00227458 0.00100695 -1.92781e-20) (-0.00258095 0.00138861 -2.33079e-21) (-1e+300 -1e+300 -1e+300) (-0.00228732 0.00182331 2.22138e-21) (-0.00200451 0.00188888 1.53648e-20) (-0.00166328 0.00193371 -2.16277e-21) (-1e+300 -1e+300 -1e+300) (-0.00114091 0.00196094 2.12525e-21) (-0.000923348 0.00191261 -1.68909e-20) (-1e+300 -1e+300 -1e+300) (-0.000447746 0.00151343 2.07988e-21) (-1e+300 -1e+300 -1e+300) (-0.000113501 0.000670783 4.12189e-21) (-5.87175e-05 0.000208782 3.21884e-23)
9.5           (0.0014774 0.00101907 7.78184e-23) (0.00228134 0.00942222 9.55643e-21) (-1e+300 -1e+300 -1e+300) (0.00850688 0.0265885 1.92833e-21) (-1e+300 -1e+300 -1e+300) (0.0193366 0.0388183 -1.89946e-20) (0.0248832 0.0420541 1.77395e-21) (-1e+300 -1e+300 -1e+300) (0.0368604 0.0437469 -1.23386e-22) (0.0420898 0.0414226 -6.59417e-21) (0.0450007 0.0381013 -1.38164e-21) (-1e+300 -1e+300 -1e+300) (0.0462068 0.0272645 2.50638e-21) (0.0441531 0.0217473 2.33252e-20) (-1e+300 -1e+300 -1e+300) (0.0344321 0.0101803 3.44559e-21) (-1e+300 -1e+300 -1e+300) (0.0208447 0.00243684 -7.09497e-21) (0.0135304 0.000288406 1.06404e-22) (0.00848446 -0.000461375 6.55396e-21) (-1e+300 -1e+300 -1e+300) (0.000776498 -0.000157172 -1.49349e-21) (-1e+300 -1e+300 -1e+300) (-0.00227017 0.00100589 -2.14902e-20) (-0.00262417 0.00141297 -2.60295e-21) (-1e+300 -1e+300 -1e+300) (-0.00233944 0.00185703 2.48722e-21) (-0.00202004 0.00188701 1.72175e-20) (-0.0016157 0.00185207 -2.42765e-21) (-1e+300 -1e+300 -1e+300) (-0.00100639 0.00169719 2.39785e-21) (-0.000778459 0.00157882 -1.91122e-20) (-1e+300 -1e+300 -1e+300) (-0.000335778 0.00107887 2.37642e-21) (-1e+300 -1e+300 -1e+300) (-7.3889e-05 0.000194332 4.75755e-21) (-5.57452e-05 -0.000279093 3.72844e-23)
10            (0.00151293 0.001384 7.70018e-23) (0.00235995 0.0099423 9.43382e-21) (-1e+300 -1e+300 -1e+300) (0.00877283 0.0274436 1.88785e-21) (-1e+300 -1e+300 -1e+300) (0.0199108 0.039959 -1.81121e-20) (0.0256294 0.0432955 1.65274e-21) (-1e+300 -1e+300 -1e+300) (0.0380519 0.0451309 3.82743e-23) (0.0435468 0.042823 -8.10951e-21) (0.0466656 0.0394775 -1.5901e-21) (-1e+300 -1e+300 -1e+300) (0.0482605 0.0284423 2.76474e-21) (0.0463119 0.0227783 2.55924e-20) (-1e+300 -1e+300 -1e+300) (0.0365793 0.0107917 3.78331e-21) (-1e+300 -1e+300 -1e+300) (0.0225764 0.00262504 -7.84928e-21) (0.0148928 0.000307418 1.18544e-22) (0.00952301 -0.000524889 7.33811e-21) (-1e+300 -1e+300 -1e+300) (0.00115785 -0.000245843 -1.68689e-21) (-1e+300 -1e+300 -1e+300) (-0.00227697 0.00100816 -2.44189e-20) (-0.00270923 0.00145493 -2.96036e-21) (-1e+300 -1e+300 -1e+300) (-0.0024979 0.00198747 2.8345e-21) (-0.00221968 0.00209363 1.96324e-20) (-0.00189378 0.00221568 -2.76816e-21) (-1e+300 -1e+300 -1e+300) (-0.00141971 0.00248024 2.72182e-21) (-0.00121021 0.00256032 -2.16282e-20) (-1e+300 -1e+300 -1e+300) (-0.000678422 0.00240905 2.65258e-21) (-1e+300 -1e+300 -1e+300) (-0.000200916 0.0016531 5.22254e-21) (-7.41545e-05 0.00116464 4.05952e-23)
10.5          (0.00152608 0.000642334 7.69249e-23) (0.0023236 0.00930133 9.46286e-21) (-1e+300 -1e+300 -1e+300) (0.00868212 0.0270352 1.90386e-21) (-1e+300 -1e+300 -1e+300) (0.0198443 0.0397758 -1.84539e-20) (0.0255978 0.0432051 1.6964e-21) (-1e+300 -1e+300 -1e+300) (0.0381478 0.045221 -5.5246e-24) (0.0437385 0.0429904 -7.78899e-21) (0.046942 0.0396911 -1.55367e-21) (-1e+300 -1e+300 -1e+300) (0.0487309 0.0287031 2.74168e-21) (0.0468596 0.0230317 2.54635e-20) (-1e+300 -1e+300 -1e+300) (0.0372416 0.0109734 3.78857e-21) (-1e+300 -1e+300 -1e+300) (0.0232308 0.00268922 -7.90061e-21) (0.0154892 0.000308532 1.19711e-22) (0.0100544 -0.000564966 7.42912e-21) (-1e+300 -1e+300 -1e+300) (0.00152827 -0.000341217 -1.71553e-21) (-1e+300 -1e+300 -1e+300) (-0.0020401 0.000902555 -2.49789e-20) (-0.00253129 0.00136485 -3.03147e-21) (-1e+300 -1e+300 -1e+300) (-0.00244951 0.00196448 2.90448e-21) (-0.00217867 0.00205764 2.01004e-20) (-0.00177977 0.00205236 -2.8291e-21) (-1e+300 -1e+300 -1e+300) (-0.00103557 0.00170921 2.78209e-21) (-0.000724962 0.00140173 -2.21311e-20) (-1e+300 -1e+300 -1e+300) (-0.000170978 0.000345218 2.74592e-21) (-1e+300 -1e+300 -1e+300) (1.51359e-05 -0.00101807 5.47051e-21) (-4.95295e-05 -0.00159586 4.2834e-23)
11            (0.00154945 0.00100476 7.63745e-23) (0.00238218 0.00975451 9.38016e-21) (-1e+300 -1e+300 -1e+300) (0.0088663 0.0276558 1.88122e-21) (-1e+300 -1e+300 -1e+300) (0.0201998 0.0405013 -1.80399e-20) (0.0260369 0.0439533 1.64338e-21) (-1e+300 -1e+300 -1e+300) (0.0387694 0.0459591 5.52551e-23) (0.0444434 0.0436842 -8.30306e-21) (0.0476963 0.0403298 -1.61967e-21) (-1e+300 -1e+300 -1e+300) (0.0495094 0.0291646 2.80805e-21) (0.0475985 0.0233995 2.59999e-20) (-1e+300 -1e+300 -1e+300) (0.0377663 0.011136 3.84693e-21) (-1e+300 -1e+300 -1e+300) (0.0234119 0.00271946 -7.98677e-21) (0.0154702 0.000317591 1.20599e-22) (0.00989494 -0.000546391 7.46146e-21) (-1e+300 -1e+300 -1e+300) (0.00116821 -0.000247291 -1.71259e-21) (-1e+300 -1e+300 -1e+300) (-0.00243662 0.00108209 -2.47294e-20) (-0.00288981 0.00155469 -2.99595e-21) (-1e+300 -1e+300 -1e+300) (-0.00252245 0.00196345 2.86561e-21) (-0.00207073 0.00187559 1.98671e-20) (-0.0015089 0.00166237 -2.81393e-21) (-1e+300 -1e+300 -1e+300) (-0.000819237 0.00134656 2.81324e-21) (-0.000630758 0.00126299 -2.25604e-20) (-1e+300 -1e+300 -1e+300) (-0.000298893 0.000962998 2.85163e-21) (-1e+300 -1e+300 -1e+300) (-7.84557e-05 0.000152606 5.79784e-21) (-7.07427e-05 -0.000394161 4.57932e-23)