# Probe 0 (-0.01 0 0)
# Probe 1 (-0.01 0.0009 0)
# Probe 2 (-0.0098 0.0017 0)
# Probe 3 (-0.0097 0.0026 0)
# Probe 4 (-0.0094 0.0034 0)
# Probe 5 (-0.0091 0.0042 0)
# Probe 6 (-0.0087 0.005 0)
# Probe 7 (-0.0082 0.0057 0)
# Probe 8 (-0.0077 0.0064 0)
# Probe 9 (-0.0071 0.0071 0)
# Probe 10 (-0.0064 0.0077 0)
# Probe 11 (-0.0057 0.0082 0)
# Probe 12 (-0.005 0.0087 0)
# Probe 13 (-0.0042 0.0091 0)
# Probe 14 (-0.0034 0.0094 0)
# Probe 15 (-0.0026 0.0097 0)
# Probe 16 (-0.0017 0.0098 0)
# Probe 17 (-0.0009 0.01 0)
# Probe 18 (0 0.01 0)
# Probe 19 (0.0009 0.01 0)
# Probe 20 (0.0017 0.0098 0)
# Probe 21 (0.0026 0.0097 0)
# Probe 22 (0.0034 0.0094 0)
# Probe 23 (0.0042 0.0091 0)
# Probe 24 (0.005 0.0087 0)
# Probe 25 (0.0057 0.0082 0)
# Probe 26 (0.0064 0.0077 0)
# Probe 27 (0.0071 0.0071 0)
# Probe 28 (0.0077 0.0064 0)
# Probe 29 (0.0082 0.0057 0)
# Probe 30 (0.0087 0.005 0)
# Probe 31 (0.0091 0.0042 0)
# Probe 32 (0.0094 0.0034 0)
# Probe 33 (0.0097 0.0026 0)
# Probe 34 (0.0098 0.0017 0)
# Probe 35 (0.01 0.0009 0)
# Probe 36 (0.01 0 0)
# Time        0             1             2             3             4             5             6             7             8             9             10            11            12            13            14            15            16            17            18            19            20            21            22            23            24            25            26            27            28            29            30            31            32            33            34            35            36           
0.01          0.00228078    0.00220407    0.00224703    0.00213966    0.00213981    0.00201569    0.00194364    0.00187252    0.00175027    0.00158585    0.00144615    0.00136506    0.00119085    0.00107469    0.00094768    0.000816342   0.000669093   0.000573102   0.000417834   0.000356897   0.000227127   0.00017775    5.53609e-05   4.07971e-05   -6.50988e-06  -0.000110744  -8.75075e-05  -0.000114906  -0.000166673  -0.000188177  -0.000183102  -0.000184771  -0.000198078  -0.00018344   -0.000195819  -0.000180816  -0.000194393 
0.02          0.00210269    0.00202768    0.00206934    0.00196408    0.00196335    0.00184175    0.00177071    0.00169876    0.00158016    0.00141719    0.00127935    0.00119847    0.00102734    0.000913255   0.000786738   0.00066082    0.000513764   0.000425694   0.000271001   0.000221247   9.14836e-05   5.94124e-05   -6.20933e-05  -5.31127e-05  -8.70271e-05  -0.000188505  -0.000134539  -0.000147568  -0.000182     -0.000171537  -0.000155847  -0.000139347  -0.000120264  -0.000103272  -8.91135e-05  -8.0828e-05   -7.79755e-05 
0.03          0.00206807    0.00199195    0.00203423    0.00192724    0.00192657    0.00180273    0.0017304     0.00165717    0.00153638    0.0013696     0.00122887    0.00114549    0.000969987   0.000852493   0.000721327   0.00059191    0.000438305   0.000348717   0.000185757   0.000137637   -7.3412e-07   -2.70414e-05  -0.000157961  -0.000135588  -0.000164667  -0.00027552   -0.000194647  -0.000203524  -0.000225406  -0.00018734   -0.000159772  -0.000123195  -6.87573e-05  -4.43483e-05  6.92177e-07   5.45686e-06   2.56485e-05  
0.04          0.00199852    0.00192225    0.00196458    0.00185718    0.00185654    0.001732      0.00165928    0.0015857     0.00146411    0.00129561    0.00115446    0.0010696     0.000892742   0.00077376    0.000639919   0.000509291   0.000351669   0.000261704   9.31856e-05   4.64551e-05   -9.83927e-05  -0.000120716  -0.000259659  -0.000227506  -0.00025348   -0.000374213  -0.000270184  -0.000278605  -0.000287361  -0.000224126  -0.000181266  -0.000121109  -2.20132e-05  1.63848e-05   0.000106067   0.000110651   0.000154396  
0.05          0.00199692    0.00191941    0.00196259    0.00185331    0.00185319    0.00172612    0.00165219    0.00157825    0.0014538     0.00128227    0.00113856    0.00105163    0.000870468   0.000748187   0.000610367   0.000475141   0.000311692   0.000217454   4.09885e-05   -8.95999e-06  -0.000162541  -0.000187419  -0.000337422  -0.000303716  -0.000332499  -0.000467763  -0.000350554  -0.000366902  -0.000369066  -0.000295447  -0.000236877  -0.000157239  -1.73339e-05  4.33607e-05   0.000188263   0.000205312   0.000274135  
0.06          0.00199463    0.0019161     0.00196005    0.00184922    0.00184977    0.0017204     0.00164551    0.00157183    0.00144446    0.00127031    0.00112466    0.00103617    0.000851361   0.000726343   0.000585345   0.000446051   0.000277848   0.000179526   -3.55448e-06  -5.71947e-05  -0.000218125  -0.000247036  -0.00040676   -0.000375033  -0.000408618  -0.000557245  -0.000434904  -0.000461305  -0.000460927  -0.000393178  -0.000317077  -0.000225916  -6.25731e-05  2.51617e-05   0.000226854   0.000278266   0.000363902  
0.07          0.0019934     0.00191401    0.00195859    0.00184656    0.00184765    0.00171646    0.00164073    0.00156798    0.0014375     0.00126131    0.00111462    0.00102424    0.000836499   0.000709111   0.000565576   0.000422614   0.000250543   0.000148332   -4.02238e-05  -9.78028e-05  -0.00026479   -0.000298674  -0.000466607  -0.000439212  -0.000478772  -0.000639104  -0.000518146  -0.000555175  -0.000556658  -0.000508086  -0.000416846  -0.000325492  -0.000164351  -5.83401e-05  0.000179102   0.00027982    0.000357265  
0.08          0.00199361    0.00191348    0.00195858    0.00184559    0.00184696    0.00171447    0.00163806    0.00156581    0.00143292    0.00125533    0.00110831    0.00101496    0.000825617   0.00069596    0.000550109   0.000403866   0.000228586   0.000122743   -7.0379e-05   -0.000131871  -0.000303836  -0.000343052  -0.000517678  -0.000495918  -0.000541694  -0.000711795  -0.000596289  -0.00064357   -0.000650209  -0.000626777  -0.000526974  -0.000445579  -0.000302454  -0.000198428  5.01645e-05   0.00018841    0.000238852  
0.09          0.00199384    0.00191307    0.00195863    0.0018448     0.00184637    0.00171289    0.00163595    0.00156356    0.00142927    0.00125048    0.00110307    0.00100691    0.000817011   0.000685391   0.000537003   0.000388223   0.000210218   0.000101136   -9.57189e-05  -0.000160874  -0.000336848  -0.000381286  -0.000561223  -0.000545637  -0.000597372  -0.000775039  -0.000667128  -0.000723767  -0.000737283  -0.00073886   -0.000637584  -0.000572266  -0.000450001  -0.000367063  -0.0001203    3.08205e-05   5.23798e-05  
0.1           0.00199538    0.00191403    0.00196       0.00184539    0.00184718    0.00171277    0.00163541    0.00156272    0.00142743    0.00124734    0.00109905    0.0010015     0.000810596   0.000677486   0.000526546   0.000375919   0.000195372   8.34456e-05   -0.000116528  -0.000185092  -0.000364337  -0.000413738  -0.000597938  -0.00058857   -0.000645855  -0.000829207  -0.000729911  -0.000794728  -0.000815617  -0.000838983  -0.000741732  -0.000694595  -0.000588598  -0.000537757  -0.000295789  -0.000151273  -0.00015168  
0.11          0.00199696    0.00191509    0.00196143    0.00184613    0.00184814    0.00171286    0.0016351     0.00156229    0.00142601    0.00124467    0.00109539    0.000997496   0.00080485    0.000670586   0.000517795   0.000365528   0.000182727   6.83486e-05   -0.000134144  -0.000205823  -0.000387602  -0.000441536  -0.000629063  -0.000625552  -0.00068778   -0.000875291  -0.000784707  -0.000856277  -0.000884206  -0.000925261  -0.000835341  -0.000805878  -0.000709289  -0.000694018  -0.000455321  -0.000327448  -0.000341867 
0.12          0.00199897    0.00191665    0.00196333    0.0018474     0.00184962    0.00171354    0.00163542    0.00156258    0.00142532    0.00124287    0.00109275    0.000994723   0.000800146   0.00066482    0.00051096    0.000356817   0.000172245   5.55796e-05   -0.000148955  -0.000223621  -0.000407211  -0.000465407  -0.000655379  -0.000657267  -0.000723772  -0.000914304  -0.000831933  -0.000909105  -0.00094329   -0.000998066  -0.000917013  -0.000903401  -0.000810037  -0.00082924   -0.000591473  -0.000483386  -0.000505789 
0.13          0.00200039    0.00191766    0.00196463    0.00184815    0.00185056    0.00171377    0.00163533    0.0015625     0.00142433    0.00124094    0.00109016    0.000991904   0.000795666   0.000659349   0.000504818   0.000348722   0.000162866   4.40223e-05   -0.000162171  -0.000239658  -0.000424457  -0.000486796  -0.000678174  -0.000685139  -0.000755146  -0.000947562  -0.000872618  -0.000954273  -0.000993727  -0.00105869   -0.000986808  -0.000986634  -0.000891792  -0.000942069  -0.000703409  -0.000614664  -0.000641094 
0.14          0.00200149    0.00191843    0.00196565    0.00184872    0.00185131    0.00171393    0.00163524    0.00156247    0.00142353    0.00123938    0.00108815    0.0009896     0.000792108   0.000654959   0.000499916   0.0003421     0.000155348   3.45148e-05   -0.000172981  -0.00025302   -0.000438706  -0.000505073  -0.000697035  -0.000709168  -0.000782092  -0.000975195  -0.000907118  -0.000992411  -0.0010361    -0.0011083    -0.00104543   -0.00105637   -0.000957045  -0.00103425   -0.000793814  -0.000722366  -0.000750596 
0.15          0.00200223    0.00191889    0.00196632    0.00184901    0.00185176    0.00171389    0.00163499    0.00156228    0.00142268    0.00123789    0.00108633    0.000987476   0.000789007   0.000651161   0.000495644   0.000336406   0.000148947   2.63902e-05   -0.000182151  -0.000264349  -0.000450832  -0.000520722  -0.000712994  -0.000730155  -0.000805676  -0.000998227  -0.000936837  -0.00102459   -0.00107157   -0.0011488    -0.00109425   -0.00111416   -0.00100855   -0.00110856   -0.000865956  -0.000809304  -0.000838084 
0.16          0.00200259    0.00191901    0.00196662    0.001849      0.00185187    0.00171359    0.00163451    0.00156188    0.00142171    0.00123641    0.00108458    0.000985446   0.000786193   0.00064777    0.000491825   0.000331433   0.00014339    1.93831e-05   -0.000189978  -0.00027397   -0.000461149  -0.000533874  -0.000726545  -0.000748044  -0.000825972  -0.00101738   -0.000962468  -0.0010514    -0.00110092   -0.00118176   -0.00113444   -0.00116155   -0.00104879   -0.00116796   -0.000923145  -0.000878869  -0.000907544 
0.17          0.00200303    0.00191925    0.00196702    0.00184912    0.00185211    0.00171347    0.00163423    0.00156167    0.001421      0.00123525    0.0010832     0.000983822   0.000783906   0.000644988   0.000488658   0.000327293   0.000138747   1.34997e-05   -0.000196519  -0.000282049  -0.000469781  -0.000544799  -0.000737945  -0.000762863  -0.000842897  -0.00103337   -0.000984185  -0.00107363   -0.001125     -0.0012086    -0.00116714   -0.00119997   -0.00107992   -0.00121515   -0.000968225  -0.000934274  -0.000962519 
0.18          0.00200344    0.00191948    0.00196739    0.00184925    0.00185234    0.00171338    0.00163402    0.00156152    0.00142041    0.00123428    0.00108204    0.000982438   0.000781956   0.000642612   0.000485946   0.00032375    0.000134773   8.45736e-06   -0.000202091  -0.000288962  -0.000477093  -0.000554048  -0.000747576  -0.000775175  -0.000856893  -0.00104683   -0.00100224   -0.00109217   -0.00114477   -0.00123041   -0.00119357   -0.00123081   -0.00110379   -0.00125226   -0.00100351   -0.000978128  -0.00100584  
0.19          0.00200383    0.00191972    0.00196775    0.00184939    0.00185258    0.00171334    0.00163386    0.00156143    0.00141993    0.00123346    0.00108107    0.000981268   0.000780297   0.000640582   0.000483625   0.000320709   0.000131366   4.12058e-06   -0.000206856  -0.000294917  -0.000483331  -0.00056199   -0.000755742  -0.000785579  -0.000868607  -0.00105821   -0.0010172    -0.00110785   -0.00116118   -0.00124812   -0.00121502   -0.00125557   -0.00112221   -0.00128131   -0.0010311    -0.00101275   -0.00103997  
0.2           0.00200421    0.00191995    0.00196809    0.00184955    0.00185282    0.00171334    0.00163376    0.00156137    0.00141954    0.00123278    0.00108025    0.000980276   0.000778879   0.00063884    0.000481629   0.000318081   0.00012842    3.58173e-07   -0.000210987  -0.000300084  -0.000488696  -0.000568869  -0.000762713  -0.000794515  -0.000878587  -0.00106783   -0.00102973   -0.00112127   -0.00117494   -0.00126248   -0.00123264   -0.00127565   -0.00113663   -0.0013042    -0.00105286   -0.00104016   -0.001067    
0.21          0.00200456    0.00192018    0.00196841    0.00184971    0.00185305    0.00171335    0.00163368    0.00156135    0.00141922    0.0012322     0.00107955    0.000979428   0.000777658   0.000637335   0.000479905   0.000315803   0.000125872   -2.90832e-06  -0.000214557  -0.000304575  -0.000493334  -0.000574849  -0.000768704  -0.000802252  -0.000887188  -0.00107599   -0.00104035   -0.0011329    -0.00118652   -0.00127419   -0.00124727   -0.00129216   -0.0011481    -0.00132246   -0.00107026   -0.00106206   -0.00108863  
0.22          0.00200487    0.00192039    0.0019687     0.00184986    0.00185326    0.00171337    0.00163363    0.00156134    0.00141894    0.0012317     0.00107894    0.000978693   0.000776597   0.000636027   0.000478405   0.000313818   0.000123656   -5.75493e-06  -0.000217658  -0.000308486  -0.000497354  -0.000580047  -0.000773872  -0.000808953  -0.000894613  -0.00108298   -0.00104955   -0.00114369   -0.00119646   -0.00128392   -0.00125958   -0.00130594   -0.00115739   -0.00133729   -0.00108442   -0.00107982   -0.00110618  
0.23          0.00200517    0.0019206     0.00196898    0.00185001    0.00185347    0.00171342    0.00163361    0.00156136    0.00141873    0.00123129    0.00107844    0.000978074   0.000775689   0.0006349     0.000477114   0.000312097   0.000121737   -8.23378e-06  -0.000220349  -0.000311897  -0.00050084   -0.000584578  -0.000778337  -0.000814772  -0.00090104   -0.00108892   -0.00105739   -0.00115339   -0.00120468   -0.00129183   -0.00126979   -0.00131731   -0.00116481   -0.00134933   -0.00109592   -0.00109423   -0.00112045  
0.24          0.00200545    0.00192079    0.00196924    0.00185015    0.00185367    0.00171347    0.00163359    0.00156138    0.00141854    0.00123093    0.001078      0.000977535   0.000774892   0.000633911   0.000475982   0.000310583   0.000120054   -1.04159e-05  -0.000222709  -0.000314899  -0.000503896  -0.000588563  -0.000782243  -0.00081989   -0.000906699  -0.00109407   -0.00106421   -0.00115995   -0.0012114    -0.0012983    -0.00127832   -0.00132676   -0.00117075   -0.00135917   -0.00110533   -0.00110604   -0.00113215  
0.25          0.0020057     0.00192097    0.00196947    0.00185029    0.00185385    0.00171352    0.00163359    0.00156141    0.00141839    0.00123062    0.00107762    0.000977073   0.000774203   0.000633053   0.000475001   0.000309265   0.00011859    -1.23178e-05  -0.000224762  -0.000317516  -0.000506549  -0.00059203   -0.000785621  -0.000824321  -0.000911581  -0.00109848   -0.00107004   -0.00116563   -0.00121732   -0.00130385   -0.00128559   -0.0013348    -0.00117567   -0.00136738   -0.0011132    -0.00111588   -0.00114192  
0.26          0.0020059     0.0019211     0.00196965    0.00185038    0.00185398    0.00171354    0.00163356    0.00156141    0.00141823    0.00123032    0.00107726    0.000976642   0.00077357    0.000632272   0.000474114   0.000308078   0.000117279   -1.40197e-05  -0.00022659   -0.000319847  -0.000508903  -0.000595108  -0.000788606  -0.000828243  -0.000915898  -0.00110237   -0.00107535   -0.00117262   -0.00122203   -0.00130841   -0.00129171   -0.00134154   -0.00117964   -0.00137416   -0.00111971   -0.00112404   -0.00115002  
0.27          0.0020061     0.00192124    0.00196984    0.0018505     0.00185413    0.00171358    0.00163357    0.00156144    0.00141812    0.00123009    0.00107698    0.000976294   0.000773046   0.000631618   0.000473367   0.000307071   0.000116164   -1.54729e-05  -0.000228151  -0.000321842  -0.000510912  -0.000597737  -0.000791143  -0.000831564  -0.000919525  -0.00110561   -0.0010794    -0.00117466   -0.00122712   -0.00131266   -0.00129712   -0.00134738   -0.00118309   -0.00137998   -0.00112531   -0.00113101   -0.00115696  
0.28          0.00200628    0.00192138    0.00197002    0.0018506     0.00185427    0.00171363    0.00163358    0.00156147    0.00141802    0.00122989    0.00107673    0.000975989   0.000772585   0.000631041   0.000472709   0.000306179   0.000115179   -1.67617e-05  -0.000229531  -0.000323612  -0.000512688  -0.000600069  -0.000793383  -0.000834509  -0.00092274   -0.00110848   -0.00108306   -0.00117763   -0.00123101   -0.00131601   -0.00130158   -0.00135221   -0.00118583   -0.00138477   -0.00112992   -0.0011368    -0.00116273  
0.29          0.00200645    0.0019215     0.00197018    0.0018507     0.00185439    0.00171367    0.00163359    0.0015615     0.00141794    0.00122972    0.00107651    0.000975721   0.000772174   0.000630527   0.000472126   0.000305385   0.000114304   -1.79102e-05  -0.000230757  -0.00032519   -0.000514265  -0.000602148  -0.00079537   -0.000837139  -0.000925614  -0.00111098   -0.00108628   -0.00117982   -0.00123403   -0.0013187    -0.00130527   -0.00135625   -0.001188     -0.00138872   -0.00113373   -0.00114161   -0.00116752  
0.3           0.0020066     0.0019216     0.00197031    0.00185078    0.0018545     0.00171371    0.0016336     0.00156153    0.00141787    0.00122956    0.00107632    0.000975484   0.000771813   0.000630075   0.000471612   0.000304687   0.000113536   -1.89184e-05  -0.000231832  -0.000326573  -0.000515646  -0.000603966  -0.000797104  -0.000839429  -0.000928112  -0.00111316   -0.0010891    -0.00118203   -0.00123686   -0.00132115   -0.00130856   -0.00135985   -0.0011899    -0.00139214   -0.00113702   -0.00114575   -0.00117166  
