# Probe 0 (-0.01 0 0)
# Probe 1 (-0.01 0.0009 0)
# Probe 2 (-0.0098 0.0017 0)
# Probe 3 (-0.0097 0.0026 0)
# Probe 4 (-0.0094 0.0034 0)
# Probe 5 (-0.0091 0.0042 0)
# Probe 6 (-0.0087 0.005 0)
# Probe 7 (-0.0082 0.0057 0)
# Probe 8 (-0.0077 0.0064 0)
# Probe 9 (-0.0071 0.0071 0)
# Probe 10 (-0.0064 0.0077 0)
# Probe 11 (-0.0057 0.0082 0)
# Probe 12 (-0.005 0.0087 0)
# Probe 13 (-0.0042 0.0091 0)
# Probe 14 (-0.0034 0.0094 0)
# Probe 15 (-0.0026 0.0097 0)
# Probe 16 (-0.0017 0.0098 0)
# Probe 17 (-0.0009 0.01 0)
# Probe 18 (0 0.01 0)
# Probe 19 (0.0009 0.01 0)
# Probe 20 (0.0017 0.0098 0)
# Probe 21 (0.0026 0.0097 0)
# Probe 22 (0.0034 0.0094 0)
# Probe 23 (0.0042 0.0091 0)
# Probe 24 (0.005 0.0087 0)
# Probe 25 (0.0057 0.0082 0)
# Probe 26 (0.0064 0.0077 0)
# Probe 27 (0.0071 0.0071 0)
# Probe 28 (0.0077 0.0064 0)
# Probe 29 (0.0082 0.0057 0)
# Probe 30 (0.0087 0.005 0)
# Probe 31 (0.0091 0.0042 0)
# Probe 32 (0.0094 0.0034 0)
# Probe 33 (0.0097 0.0026 0)
# Probe 34 (0.0098 0.0017 0)
# Probe 35 (0.01 0.0009 0)
# Probe 36 (0.01 0 0)
# Time        0             1             2             3             4             5             6             7             8             9             10            11            12            13            14            15            16            17            18            19            20            21            22            23            24            25            26            27            28            29            30            31            32            33            34            35            36           
0.01          1.49938e-14   -4.48427e-10  1.5382e-08    -1.04125e-09  2.86656e-08   -1.03635e-09  -7.45849e-10  4.86135e-08   5.30718e-10   1.72174e-09   -9.27462e-08  7.28214e-08   -8.64179e-08  -8.38183e-08  8.28541e-08   -7.94418e-08  8.63923e-08   -7.72123e-08  -8.78247e-08  7.72973e-08   -8.65119e-08  7.9661e-08    -8.30693e-08  8.41238e-08   8.67372e-08   -7.31569e-08  9.30419e-08   -1.85436e-09  -7.60509e-10  -4.89507e-08  4.83306e-10   7.79844e-10   -2.88828e-08  8.51128e-10   -1.55025e-08  3.73993e-10   -8.65263e-15 
0.02          9.68766e-15   -4.02824e-10  1.54398e-08   -9.12959e-10  2.87722e-08   -8.23643e-10  -4.94959e-10  4.87951e-08   8.57011e-10   2.08514e-09   -9.28045e-08  7.31514e-08   -8.65684e-08  -8.40144e-08  8.32704e-08   -7.97439e-08  8.68844e-08   -7.76283e-08  -8.84093e-08  7.78339e-08   -8.71876e-08  8.0282e-08    -8.38184e-08  8.47822e-08   8.73903e-08   -7.39969e-08  9.36342e-08   -2.51592e-09  -1.57626e-09  -4.97587e-08  -3.05626e-10  4.30082e-11   -2.94493e-08  3.23925e-10   -1.58278e-08  1.68681e-10   -2.06576e-14 
0.03          5.58265e-15   -3.66246e-10  1.54894e-08   -8.10078e-10  2.88618e-08   -6.52939e-10  -2.93328e-10  4.89403e-08   1.12207e-09   2.38542e-09   -9.28322e-08  7.33911e-08   -8.66621e-08  -8.41465e-08  8.35946e-08   -7.99681e-08  8.72658e-08   -7.7954e-08   -8.88732e-08  7.82874e-08   -8.77497e-08  8.08537e-08   -8.44768e-08  8.54541e-08   8.8093e-08    -7.48267e-08  9.4356e-08    -3.11705e-09  -2.4115e-09   -5.07771e-08  -1.24431e-09  -8.92808e-10  -3.03079e-08  -4.2672e-10   -1.63629e-08  -1.43906e-10  -3.67244e-14 
0.04          3.04032e-15   -3.34427e-10  1.55368e-08   -7.21166e-10  2.8945e-08    -5.06947e-10  -1.21592e-10  4.90658e-08   1.34683e-09   2.64382e-09   -9.28446e-08  7.35786e-08   -8.67219e-08  -8.42349e-08  8.38453e-08   -8.01333e-08  8.75664e-08   -7.82097e-08  -8.92385e-08  7.86627e-08   -8.82002e-08  8.1358e-08    -8.50234e-08  8.60989e-08   8.87984e-08   -7.55798e-08  9.5166e-08    -3.60105e-09  -3.19177e-09  -5.19764e-08  -2.29287e-09  -2.03659e-09  -3.16256e-08  -1.53541e-09  -1.73207e-08  -6.68622e-10  -5.32397e-14 
0.05          1.34997e-15   -3.07054e-10  1.55856e-08   -6.42115e-10  2.903e-08     -3.73769e-10  3.51769e-11   4.91852e-08   1.54893e-09   2.87455e-09   -9.28488e-08  7.37316e-08   -8.67603e-08  -8.42946e-08  8.40387e-08   -8.02526e-08  8.77978e-08   -7.84066e-08  -8.95224e-08  7.89673e-08   -8.85491e-08  8.17857e-08   -8.54512e-08  8.66827e-08   8.94609e-08   -7.62021e-08  9.59988e-08   -3.90592e-09  -3.79022e-09  -5.32061e-08  -3.31132e-09  -3.28954e-09  -3.34765e-08  -3.14965e-09  -1.89674e-08  -1.61675e-09  -4.58597e-14 
0.06          -1.67124e-15  -2.92964e-10  1.56231e-08   -5.93787e-10  2.91032e-08   -2.72009e-10  1.65743e-10   4.93057e-08   1.73796e-09   3.09759e-09   -9.28524e-08  7.38699e-08   -8.67887e-08  -8.43397e-08  8.4201e-08    -8.03457e-08  8.79857e-08   -7.85641e-08  -8.97498e-08  7.92205e-08   -8.8826e-08   8.21509e-08   -8.57851e-08  8.71973e-08   9.00584e-08   -7.66859e-08  9.67968e-08   -4.01825e-09  -4.12073e-09  -5.42615e-08  -4.07825e-09  -4.36319e-09  -3.53586e-08  -4.99639e-09  -2.07991e-08  -2.95485e-09  -1.9783e-15  
0.07          -5.58498e-15  -2.91842e-10  1.56341e-08   -5.84485e-10  2.91333e-08   -2.33542e-10  2.27878e-10   4.93904e-08   1.86655e-09   3.27591e-09   -9.28582e-08  7.40008e-08   -8.68103e-08  -8.43738e-08  8.434e-08     -8.04184e-08  8.81408e-08   -7.86904e-08  -8.99313e-08  7.94287e-08   -8.90428e-08  8.24597e-08   -8.60413e-08  8.76418e-08   9.05799e-08   -7.70411e-08  9.75169e-08   -3.95714e-09  -4.17507e-09  -5.50127e-08  -4.44716e-09  -4.97321e-09  -3.65883e-08  -6.3361e-09   -2.18053e-08  -4.08563e-09  6.5499e-14   
0.08          -6.93955e-15  -2.92178e-10  1.56322e-08   -5.85344e-10  2.9134e-08    -2.29881e-10  2.3932e-10    4.942e-08     1.9146e-09    3.36419e-09   -9.28664e-08  7.4116e-08    -8.68288e-08  -8.44006e-08  8.44632e-08   -8.04754e-08  8.82708e-08   -7.87923e-08  -9.00775e-08  7.95999e-08   -8.9211e-08   8.2718e-08    -8.62337e-08  8.80211e-08   9.10279e-08   -7.72902e-08  9.81433e-08   -3.76818e-09  -4.01534e-09  -5.54616e-08  -4.45443e-09  -5.11153e-09  -3.70528e-08  -6.88517e-09  -2.17912e-08  -4.61152e-09  1.25861e-13  
0.09          -5.65135e-15  -2.89745e-10  1.56323e-08   -5.79698e-10  2.91335e-08   -2.23742e-10  2.45503e-10   4.94239e-08   1.92692e-09   3.38942e-09   -9.28732e-08  7.41919e-08   -8.68446e-08  -8.44226e-08  8.4571e-08    -8.05201e-08  8.83817e-08   -7.8874e-08   -9.01954e-08  7.97406e-08   -8.93406e-08  8.29327e-08   -8.63752e-08  8.83404e-08   9.14072e-08   -7.74538e-08  9.8677e-08    -3.49477e-09  -3.71924e-09  -5.56739e-08  -4.21752e-09  -4.92332e-09  -3.6965e-08   -6.84938e-09  -2.11385e-08  -4.63485e-09  1.5383e-13   
0.1           -3.49487e-15  -2.85847e-10  1.5636e-08    -5.69089e-10  2.91393e-08   -2.08054e-10  2.62307e-10   4.943e-08     1.94383e-09   3.40582e-09   -9.28763e-08  7.42282e-08   -8.68569e-08  -8.44403e-08  8.46543e-08   -8.05556e-08  8.84756e-08   -7.89397e-08  -9.02913e-08  7.98565e-08   -8.944e-08    8.31117e-08   -8.64773e-08  8.86079e-08   9.17256e-08   -7.75528e-08  9.91259e-08   -3.16821e-09  -3.34457e-09  -5.57187e-08  -3.844e-09    -4.55403e-09  -3.65558e-08  -6.49823e-09  -2.02186e-08  -4.39395e-09  1.39174e-13  
0.11          -1.52533e-15  -2.81778e-10  1.56409e-08   -5.5746e-10   2.91481e-08   -1.88627e-10  2.84971e-10   4.94425e-08   1.97129e-09   3.43397e-09   -9.28765e-08  7.42476e-08   -8.68655e-08  -8.4454e-08   8.47081e-08   -8.0584e-08   8.8549e-08    -7.89923e-08  -9.03695e-08  7.99518e-08   -8.9515e-08   8.32611e-08   -8.6548e-08   8.88318e-08   9.1992e-08    -7.76041e-08  9.95004e-08   -2.81488e-09  -2.93019e-09  -5.56493e-08  -3.40199e-09  -4.09791e-09  -3.59858e-08  -6.01496e-09  -1.92537e-08  -4.05811e-09  8.83068e-14  
0.12          -1.06874e-16  -2.77974e-10  1.56458e-08   -5.46417e-10  2.91572e-08   -1.69359e-10  3.08242e-10   4.94574e-08   2.00274e-09   3.46993e-09   -9.28752e-08  7.42669e-08   -8.68717e-08  -8.44647e-08  8.47426e-08   -8.06072e-08  8.86019e-08   -7.90348e-08  -9.04333e-08  8.00299e-08   -8.95729e-08  8.33861e-08   -8.65947e-08  8.90202e-08   9.22158e-08   -7.76198e-08  9.98124e-08   -2.45402e-09  -2.50496e-09  -5.5508e-08   -2.93502e-09  -3.61055e-09  -3.53543e-08  -5.49972e-09  -1.83508e-08  -3.71609e-09  1.91227e-14  
0.13          6.55688e-16   -2.74538e-10  1.56503e-08   -5.3639e-10   2.91657e-08   -1.51612e-10  3.29948e-10   4.94722e-08   2.03337e-09   3.5068e-09    -9.28731e-08  7.42891e-08   -8.68763e-08  -8.44732e-08  8.47707e-08   -8.06267e-08  8.86411e-08   -7.90699e-08  -9.04855e-08  8.00937e-08   -8.96221e-08  8.34901e-08   -8.6627e-08   8.9179e-08    9.24044e-08   -7.76092e-08  1.00073e-07   -2.09495e-09  -2.08571e-09  -5.53254e-08  -2.47127e-09  -3.1265e-09   -3.47221e-08  -5.00274e-09  -1.75515e-08  -3.40586e-09  -4.69473e-14 
0.14          8.46701e-16   -2.71504e-10  1.56543e-08   -5.27518e-10  2.91732e-08   -1.35817e-10  3.49356e-10   4.94854e-08   2.06124e-09   3.54112e-09   -9.28707e-08  7.43113e-08   -8.68796e-08  -8.448e-08    8.47978e-08   -8.06432e-08  8.86736e-08   -7.90996e-08  -9.05284e-08  8.01464e-08   -8.96678e-08  8.35765e-08   -8.6657e-08   8.93131e-08   9.25642e-08   -7.75842e-08  1.00293e-07   -1.74196e-09  -1.68052e-09  -5.51223e-08  -2.02675e-09  -2.66598e-09  -3.41244e-08  -4.5485e-09   -1.68651e-08  -3.13963e-09  -9.23767e-14 
0.15          7.26351e-16   -2.68861e-10  1.56578e-08   -5.19781e-10  2.91798e-08   -1.21999e-10  3.66374e-10   4.9497e-08    2.08585e-09   3.57177e-09   -9.28679e-08  7.43316e-08   -8.68817e-08  -8.44851e-08  8.48233e-08   -8.06568e-08  8.87026e-08   -7.91247e-08  -9.05638e-08  8.01905e-08   -8.97091e-08  8.36481e-08   -8.66906e-08  8.94261e-08   9.27e-08      -7.75617e-08  1.00481e-07   -1.40418e-09  -1.29558e-09  -5.4915e-08   -1.60898e-09  -2.23819e-09  -3.35787e-08  -4.14604e-09  -1.62855e-08  -2.91778e-09  -1.08349e-13 
0.16          4.4218e-16    -2.66573e-10  1.56608e-08   -5.13072e-10  2.91854e-08   -1.09985e-10  3.8119e-10    4.95071e-08   2.10735e-09   3.59871e-09   -9.2865e-08   7.43493e-08   -8.68828e-08  -8.44887e-08  8.4846e-08    -8.06677e-08  8.8728e-08    -7.91458e-08  -9.05929e-08  8.02275e-08   -8.9743e-08   8.37073e-08   -8.67235e-08  8.95199e-08   9.28137e-08   -7.75527e-08  1.0064e-07    -1.10371e-09  -9.44385e-10  -5.47189e-08  -1.22384e-09  -1.84684e-09  -3.3091e-08   -3.7947e-09   -1.57998e-08  -2.73542e-09  -9.58596e-14 
0.17          1.15785e-16   -2.64592e-10  1.56634e-08   -5.07252e-10  2.91904e-08   -9.95365e-11  3.94094e-10   4.95158e-08   2.12614e-09   3.62234e-09   -9.28621e-08  7.43646e-08   -8.68834e-08  -8.44914e-08  8.48657e-08   -8.06766e-08  8.875e-08     -7.91633e-08  -9.06168e-08  8.02588e-08   -8.97687e-08  8.37565e-08   -8.67493e-08  8.95968e-08   9.29071e-08   -7.75536e-08  1.00774e-07   -8.62006e-10  -6.45866e-10  -5.45483e-08  -8.82391e-10  -1.49794e-09  -3.26633e-08  -3.4906e-09   -1.5394e-08   -2.58611e-09  -6.32994e-14 
0.18          -1.71721e-16  -2.62879e-10  1.56657e-08   -5.02215e-10  2.91946e-08   -9.04702e-11  4.05309e-10   4.95233e-08   2.14252e-09   3.64302e-09   -9.28594e-08  7.43778e-08   -8.68836e-08  -8.44934e-08  8.48826e-08   -8.06838e-08  8.87688e-08   -7.91779e-08  -9.06364e-08  8.0285e-08    -8.97874e-08  8.37976e-08   -8.67658e-08  8.96596e-08   9.29828e-08   -7.75532e-08  1.00881e-07   -6.77891e-10  -4.06528e-10  -5.44067e-08  -5.94252e-10  -1.19865e-09  -3.22953e-08  -3.23059e-09  -1.50558e-08  -2.4639e-09   -2.25683e-14 
0.19          -3.65734e-16  -2.61402e-10  1.56676e-08   -4.97864e-10  2.91983e-08   -8.26152e-11  4.1504e-10    4.95299e-08   2.15677e-09   3.66107e-09   -9.2857e-08   7.43892e-08   -8.68835e-08  -8.44948e-08  8.48972e-08   -8.06896e-08  8.87847e-08   -7.91901e-08  -9.06525e-08  8.03071e-08   -8.98012e-08  8.38321e-08   -8.67748e-08  8.97112e-08   9.30441e-08   -7.75448e-08  1.00966e-07   -5.30122e-10  -2.13905e-10  -5.42858e-08  -3.57412e-10  -9.49349e-10  -3.19821e-08  -3.01195e-09  -1.47747e-08  -2.36396e-09  1.48807e-14  
0.2           -4.43581e-16  -2.60126e-10  1.56693e-08   -4.94103e-10  2.92015e-08   -7.58148e-11  4.23474e-10   4.95355e-08   2.16916e-09   3.67681e-09   -9.28547e-08  7.43991e-08   -8.68833e-08  -8.44959e-08  8.49097e-08   -8.06945e-08  8.87983e-08   -7.92003e-08  -9.06659e-08  8.03257e-08   -8.98116e-08  8.38611e-08   -8.67791e-08  8.9754e-08    9.30943e-08   -7.75289e-08  1.01034e-07   -3.98306e-10  -4.95207e-11  -5.41757e-08  -1.60095e-10  -7.42046e-10  -3.17153e-08  -2.83015e-09  -1.4541e-08   -2.28229e-09  4.09154e-14  
0.21          -4.23218e-16  -2.59019e-10  1.56708e-08   -4.9084e-10   2.92043e-08   -6.99148e-11  4.30794e-10   4.95404e-08   2.17993e-09   3.69052e-09   -9.28527e-08  7.44077e-08   -8.68831e-08  -8.44967e-08  8.49205e-08   -8.06986e-08  8.88099e-08   -7.92089e-08  -9.06771e-08  8.03414e-08   -8.98197e-08  8.38856e-08   -8.67806e-08  8.97897e-08   9.31358e-08   -7.75087e-08  1.01088e-07   -2.73964e-10  9.82104e-11   -5.40719e-08  9.88784e-12   -5.6625e-10   -3.1486e-08   -2.67903e-09  -1.43456e-08  -2.21537e-09  5.20111e-14  
0.22          -3.4251e-16   -2.58053e-10  1.5672e-08    -4.87995e-10  2.92067e-08   -6.4773e-11   4.37171e-10   4.95447e-08   2.18931e-09   3.70247e-09   -9.28509e-08  7.44152e-08   -8.68828e-08  -8.44974e-08  8.49299e-08   -8.0702e-08   8.88199e-08   -7.92162e-08  -9.06867e-08  8.03549e-08   -8.98262e-08  8.39065e-08   -8.67807e-08  8.98199e-08   9.31706e-08   -7.74874e-08  1.01132e-07   -1.56882e-10  2.32719e-10   -5.39746e-08  1.59693e-10   -4.14049e-10  -3.12873e-08  -2.55244e-09  -1.41812e-08  -2.16021e-09  4.90172e-14  
0.23          -2.36908e-16  -2.57207e-10  1.56731e-08   -4.85503e-10  2.92088e-08   -6.02732e-11  4.42749e-10   4.95484e-08   2.19751e-09   3.71292e-09   -9.28493e-08  7.44217e-08   -8.68825e-08  -8.44979e-08  8.4938e-08    -8.07049e-08  8.88286e-08   -7.92225e-08  -9.06948e-08  8.03665e-08   -8.98313e-08  8.39243e-08   -8.67799e-08  8.98455e-08   9.32e-08      -7.74668e-08  1.01169e-07   -4.62465e-11  3.54381e-10   -5.38851e-08  2.92533e-10   -2.80895e-10  -3.11144e-08  -2.44532e-09  -1.40418e-08  -2.11438e-09  3.58778e-14  
0.24          -1.35479e-16  -2.56463e-10  1.56741e-08   -4.83311e-10  2.92106e-08   -5.63174e-11  4.47652e-10   4.95516e-08   2.20471e-09   3.72209e-09   -9.28478e-08  7.44273e-08   -8.68822e-08  -8.44983e-08  8.49451e-08   -8.07074e-08  8.88361e-08   -7.9228e-08   -9.07017e-08  8.03764e-08   -8.98355e-08  8.39397e-08   -8.67787e-08  8.98674e-08   9.3225e-08    -7.74474e-08  1.01201e-07   4.84811e-11   4.62397e-10   -5.38044e-08  4.09837e-10   -1.64236e-10  -3.09636e-08  -2.35393e-09  -1.39228e-08  -2.07599e-09  1.79264e-14  
0.25          -5.53381e-17  -2.55806e-10  1.5675e-08    -4.81378e-10  2.92122e-08   -5.28298e-11  4.51973e-10   4.95544e-08   2.21105e-09   3.73016e-09   -9.28465e-08  7.44323e-08   -8.68819e-08  -8.44987e-08  8.49512e-08   -8.07096e-08  8.88426e-08   -7.92327e-08  -9.07077e-08  8.03851e-08   -8.98389e-08  8.39529e-08   -8.67771e-08  8.98863e-08   9.32465e-08   -7.74294e-08  1.01227e-07   1.27663e-10   5.57591e-10   -5.37324e-08  5.13002e-10   -6.2196e-11   -3.08321e-08  -2.27551e-09  -1.38208e-08  -2.0436e-09   3.11022e-16  
0.26          -3.92633e-18  -2.55226e-10  1.56757e-08   -4.7967e-10   2.92136e-08   -4.97491e-11  4.55789e-10   4.95569e-08   2.21665e-09   3.7373e-09    -9.28454e-08  7.44366e-08   -8.68816e-08  -8.44989e-08  8.49566e-08   -8.07114e-08  8.88483e-08   -7.92367e-08  -9.07128e-08  8.03925e-08   -8.98418e-08  8.39644e-08   -8.67755e-08  8.99025e-08   9.3265e-08    -7.74129e-08  1.01249e-07   1.98852e-10   6.40878e-10   -5.36684e-08  6.03569e-10   2.70989e-11   -3.07172e-08  -2.20792e-09  -1.37328e-08  -2.01608e-09  -1.31711e-14 
0.27          8.52932e-20   -2.54713e-10  1.56764e-08   -4.78162e-10  2.92148e-08   -4.70281e-11  4.5916e-10    4.95591e-08   2.22159e-09   3.7436e-09    -9.28443e-08  7.44404e-08   -8.68813e-08  -8.44991e-08  8.49613e-08   -8.0713e-08   8.88533e-08   -7.92403e-08  -9.07173e-08  8.0399e-08    -8.98442e-08  8.39744e-08   -8.67738e-08  8.99165e-08   9.32808e-08   -7.7398e-08   1.01268e-07   2.62943e-10   7.161e-10     -5.36112e-08  6.83176e-10   1.05215e-10   -3.06167e-08  -2.14944e-09  -1.36566e-08  -1.99253e-09  -2.05663e-14 
0.28          -1.93124e-17  -2.54259e-10  1.5677e-08    -4.76826e-10  2.92159e-08   -4.46197e-11  4.62144e-10   4.95611e-08   2.22597e-09   3.74917e-09   -9.28434e-08  7.44438e-08   -8.68811e-08  -8.44993e-08  8.49655e-08   -8.07144e-08  8.88576e-08   -7.92434e-08  -9.07211e-08  8.04047e-08   -8.98461e-08  8.3983e-08    -8.67721e-08  8.99286e-08   9.32944e-08   -7.73844e-08  1.01284e-07   3.19108e-10   7.83237e-10   -5.35603e-08  7.53392e-10   1.738e-10     -3.05285e-08  -2.09866e-09  -1.35904e-08  -1.97227e-09  -2.17306e-14 
0.29          -4.99043e-17  -2.53857e-10  1.56775e-08   -4.75642e-10  2.92169e-08   -4.24834e-11  4.6479e-10    4.95628e-08   2.22985e-09   3.75412e-09   -9.28425e-08  7.44467e-08   -8.68808e-08  -8.44994e-08  8.49691e-08   -8.07156e-08  8.88614e-08   -7.92461e-08  -9.07245e-08  8.04097e-08   -8.98478e-08  8.39906e-08   -8.67705e-08  8.99391e-08   9.33063e-08   -7.73722e-08  1.01298e-07   3.70564e-10   8.41578e-10   -5.35153e-08  8.15029e-10   2.33968e-10   -3.04512e-08  -2.05444e-09  -1.35327e-08  -1.95475e-09  -1.79224e-14 
0.3           -8.20836e-17  -2.535e-10    1.56779e-08   -4.74591e-10  2.92178e-08   -4.05876e-11  4.67138e-10   4.95643e-08   2.23329e-09   3.75851e-09   -9.28418e-08  7.44493e-08   -8.68806e-08  -8.44995e-08  8.49723e-08   -8.07167e-08  8.88647e-08   -7.92484e-08  -9.07274e-08  8.0414e-08    -8.98492e-08  8.39972e-08   -8.67689e-08  8.99484e-08   9.33166e-08   -7.73611e-08  1.0131e-07    4.16595e-10   8.92907e-10   -5.34754e-08  8.6924e-10    2.86781e-10   -3.03833e-08  -2.01582e-09  -1.34823e-08  -1.93953e-09  -1.11742e-14 
