# Probe 0 (-0.01 0 0)
# Probe 1 (-0.01 0.0009 0)
# Probe 2 (-0.0098 0.0017 0)
# Probe 3 (-0.0097 0.0026 0)
# Probe 4 (-0.0094 0.0034 0)
# Probe 5 (-0.0091 0.0042 0)
# Probe 6 (-0.0087 0.005 0)
# Probe 7 (-0.0082 0.0057 0)
# Probe 8 (-0.0077 0.0064 0)
# Probe 9 (-0.0071 0.0071 0)
# Probe 10 (-0.0064 0.0077 0)
# Probe 11 (-0.0057 0.0082 0)
# Probe 12 (-0.005 0.0087 0)
# Probe 13 (-0.0042 0.0091 0)
# Probe 14 (-0.0034 0.0094 0)
# Probe 15 (-0.0026 0.0097 0)
# Probe 16 (-0.0017 0.0098 0)
# Probe 17 (-0.0009 0.01 0)
# Probe 18 (0 0.01 0)
# Probe 19 (0.0009 0.01 0)
# Probe 20 (0.0017 0.0098 0)
# Probe 21 (0.0026 0.0097 0)
# Probe 22 (0.0034 0.0094 0)
# Probe 23 (0.0042 0.0091 0)
# Probe 24 (0.005 0.0087 0)
# Probe 25 (0.0057 0.0082 0)
# Probe 26 (0.0064 0.0077 0)
# Probe 27 (0.0071 0.0071 0)
# Probe 28 (0.0077 0.0064 0)
# Probe 29 (0.0082 0.0057 0)
# Probe 30 (0.0087 0.005 0)
# Probe 31 (0.0091 0.0042 0)
# Probe 32 (0.0094 0.0034 0)
# Probe 33 (0.0097 0.0026 0)
# Probe 34 (0.0098 0.0017 0)
# Probe 35 (0.01 0.0009 0)
# Probe 36 (0.01 0 0)
# Time        0             1             2             3             4             5             6             7             8             9             10            11            12            13            14            15            16            17            18            19            20            21            22            23            24            25            26            27            28            29            30            31            32            33            34            35            36           
0.01          1.50615e-14   -4.49167e-10  1.53811e-08   -1.04333e-09  2.86639e-08   -1.03978e-09  -7.49871e-10  4.86106e-08   5.25578e-10   1.71607e-09   -9.2745e-08   7.28161e-08   -8.64153e-08  -8.3815e-08   8.28474e-08   -7.94368e-08  8.63844e-08   -7.72058e-08  -8.78156e-08  7.72893e-08   -8.65019e-08  7.96522e-08   -8.30586e-08  8.41151e-08   8.67289e-08   -7.31457e-08  9.30349e-08   -1.845e-09    -7.4954e-10   -4.8941e-08   4.92939e-10   7.88638e-10   -2.88765e-08  8.57172e-10   -1.5499e-08   3.76292e-10   -8.51061e-15 
0.02          9.75946e-15   -4.03404e-10  1.54391e-08   -9.14594e-10  2.87709e-08   -8.26359e-10  -4.98168e-10  4.87927e-08   8.52798e-10   2.08041e-09   -9.2804e-08   7.31474e-08   -8.65668e-08  -8.40121e-08  8.32651e-08   -7.97402e-08  8.68782e-08   -7.7623e-08   -8.84017e-08  7.78267e-08   -8.71786e-08  8.02733e-08   -8.38081e-08  8.47724e-08   8.73803e-08   -7.39846e-08  9.36246e-08   -2.50665e-09  -1.56419e-09  -4.97455e-08  -2.93029e-10  5.50877e-11   -2.94393e-08  3.32953e-10   -1.58219e-08  1.72283e-10   -2.04618e-14 
0.03          5.62656e-15   -3.66755e-10  1.54887e-08   -8.11508e-10  2.88605e-08   -6.55305e-10  -2.96121e-10  4.89383e-08   1.1184e-09    2.38123e-09   -9.28319e-08  7.33879e-08   -8.66609e-08  -8.41449e-08  8.35903e-08   -7.99651e-08  8.72606e-08   -7.79496e-08  -8.8867e-08   7.82811e-08   -8.77421e-08  8.08456e-08   -8.44677e-08  8.54442e-08   8.80823e-08   -7.48147e-08  9.43444e-08   -3.10872e-09  -2.39909e-09  -5.07603e-08  -1.22925e-09  -8.77214e-10  -3.02921e-08  -4.13265e-10  -1.63525e-08  -1.38052e-10  -3.64355e-14 
0.04          3.07618e-15   -3.34898e-10  1.55361e-08   -7.2248e-10   2.89437e-08   -5.09086e-10  -1.24085e-10  4.9064e-08    1.34359e-09   2.64008e-09   -9.28445e-08  7.3576e-08    -8.67212e-08  -8.42338e-08  8.3842e-08    -8.01312e-08  8.75623e-08   -7.82063e-08  -8.92335e-08  7.86574e-08   -8.81941e-08  8.13507e-08   -8.50158e-08  8.60893e-08   8.87876e-08   -7.5569e-08   9.51529e-08   -3.59479e-09  -3.18065e-09  -5.19568e-08  -2.27615e-09  -2.01731e-09  -3.16005e-08  -1.5143e-09   -1.73006e-08  -6.57728e-10  -5.31282e-14 
0.05          1.37823e-15   -3.07413e-10  1.55849e-08   -6.43218e-10  2.90286e-08   -3.75771e-10  3.27643e-11   4.91833e-08   1.54575e-09   2.87093e-09   -9.28488e-08  7.37293e-08   -8.67598e-08  -8.42938e-08  8.40359e-08   -8.02509e-08  8.77945e-08   -7.84038e-08  -8.95183e-08  7.89629e-08   -8.85442e-08  8.17794e-08   -8.54452e-08  8.66739e-08   8.94509e-08   -7.61933e-08  9.59857e-08   -3.90257e-09  -3.78265e-09  -5.31874e-08  -3.29648e-09  -3.27004e-09  -3.34446e-08  -3.12043e-09  -1.89369e-08  -1.59765e-09  -4.62531e-14 
0.06          -1.60652e-15  -2.9306e-10   1.56227e-08   -5.94206e-10  2.91023e-08   -2.73157e-10  1.64119e-10   4.93039e-08   1.73523e-09   3.09417e-09   -9.28524e-08  7.38678e-08   -8.67883e-08  -8.43391e-08  8.41986e-08   -8.03444e-08  8.7983e-08    -7.85618e-08  -8.97465e-08  7.92168e-08   -8.88221e-08  8.21454e-08   -8.57803e-08  8.71896e-08   9.00494e-08   -7.66792e-08  9.67845e-08   -4.01791e-09  -4.11768e-09  -5.42467e-08  -4.06891e-09  -4.34914e-09  -3.53323e-08  -4.96885e-09  -2.07742e-08  -2.93308e-09  -2.95037e-15 
0.07          -5.53516e-15  -2.91823e-10  1.5634e-08    -5.84473e-10  2.91331e-08   -2.33757e-10  2.27404e-10   4.93895e-08   1.86515e-09   3.27368e-09   -9.28581e-08  7.39987e-08   -8.681e-08    -8.43733e-08  8.43379e-08   -8.04174e-08  8.81384e-08   -7.86886e-08  -8.99287e-08  7.94256e-08   -8.90397e-08  8.2455e-08    -8.60376e-08  8.7635e-08    9.0572e-08    -7.70362e-08  9.75059e-08   -3.95931e-09  -4.17612e-09  -5.50029e-08  -4.44431e-09  -4.96731e-09  -3.65747e-08  -6.32069e-09  -2.17977e-08  -4.07172e-09  6.4365e-14   
0.08          -6.94329e-15  -2.92196e-10  1.56323e-08   -5.85373e-10  2.9134e-08    -2.29904e-10  2.39267e-10   4.94198e-08   1.91425e-09   3.36341e-09   -9.28663e-08  7.41143e-08   -8.68285e-08  -8.44002e-08  8.44612e-08   -8.04746e-08  8.82689e-08   -7.87908e-08  -9.00753e-08  7.95973e-08   -8.92085e-08  8.27141e-08   -8.6231e-08   8.80154e-08   9.10212e-08   -7.72868e-08  9.81338e-08   -3.77205e-09  -4.01925e-09  -5.54564e-08  -4.45662e-09  -5.11234e-09  -3.70503e-08  -6.88169e-09  -2.17978e-08  -4.60762e-09  1.25082e-13  
0.09          -5.68429e-15  -2.89802e-10  1.56323e-08   -5.79847e-10  2.91334e-08   -2.23935e-10  2.45313e-10   4.94239e-08   1.92674e-09   3.38918e-09   -9.28731e-08  7.4191e-08    -8.68444e-08  -8.44222e-08  8.45694e-08   -8.05194e-08  8.838e-08     -7.88728e-08  -9.01937e-08  7.97384e-08   -8.93387e-08  8.29294e-08   -8.63732e-08  8.83355e-08   9.14014e-08   -7.74516e-08  9.86688e-08   -3.49984e-09  -3.72495e-09  -5.56719e-08  -4.22283e-09  -4.92828e-09  -3.69697e-08  -6.85321e-09  -2.11524e-08  -4.63723e-09  1.5371e-13   
0.1           -3.53092e-15  -2.85916e-10  1.56359e-08   -5.69282e-10  2.91392e-08   -2.08364e-10  2.61957e-10   4.94298e-08   1.94345e-09   3.40546e-09   -9.28763e-08  7.42278e-08   -8.68567e-08  -8.444e-08    8.46532e-08   -8.05551e-08  8.84741e-08   -7.89387e-08  -9.02899e-08  7.98548e-08   -8.94385e-08  8.3109e-08    -8.64758e-08  8.86038e-08   9.17207e-08   -7.75516e-08  9.91191e-08   -3.17394e-09  -3.35124e-09  -5.5719e-08   -3.85093e-09  -4.56109e-09  -3.65643e-08  -6.50554e-09  -2.02347e-08  -4.39909e-09  1.39753e-13  
0.11          -1.55459e-15  -2.81845e-10  1.56408e-08   -5.57654e-10  2.91479e-08   -1.88962e-10  2.84571e-10   4.94422e-08   1.97077e-09   3.4334e-09    -9.28765e-08  7.42473e-08   -8.68654e-08  -8.44538e-08  8.47074e-08   -8.05836e-08  8.85479e-08   -7.89915e-08  -9.03683e-08  7.99504e-08   -8.95139e-08  8.32588e-08   -8.65471e-08  8.88284e-08   9.19879e-08   -7.76035e-08  9.94946e-08   -2.82097e-09  -2.93737e-09  -5.56512e-08  -3.40979e-09  -4.10603e-09  -3.59962e-08  -6.02361e-09  -1.92697e-08  -4.06402e-09  8.93818e-14  
0.12          -1.25713e-16  -2.78036e-10  1.56457e-08   -5.46596e-10  2.91571e-08   -1.69674e-10  3.07858e-10   4.94572e-08   2.0022e-09    3.46929e-09   -9.28752e-08  7.42666e-08   -8.68716e-08  -8.44645e-08  8.4742e-08    -8.06069e-08  8.86011e-08   -7.90342e-08  -9.04324e-08  8.00287e-08   -8.95721e-08  8.33841e-08   -8.65941e-08  8.90172e-08   9.22123e-08   -7.76198e-08  9.98075e-08   -2.46014e-09  -2.51214e-09  -5.55109e-08  -2.94297e-09  -3.61886e-09  -3.53651e-08  -5.5084e-09   -1.83653e-08  -3.72168e-09  2.03276e-14  
0.13          6.4883e-16    -2.74593e-10  1.56503e-08   -5.36551e-10  2.91656e-08   -1.51898e-10  3.29598e-10   4.94719e-08   2.03287e-09   3.50619e-09   -9.28732e-08  7.42887e-08   -8.68763e-08  -8.44731e-08  8.47703e-08   -8.06264e-08  8.86405e-08   -7.90694e-08  -9.04847e-08  8.00928e-08   -8.96213e-08  8.34885e-08   -8.66265e-08  8.91765e-08   9.24014e-08   -7.76095e-08  1.00069e-07   -2.101e-09    -2.09271e-09  -5.53287e-08  -2.47901e-09  -3.13455e-09  -3.47326e-08  -5.01085e-09  -1.75642e-08  -3.41076e-09  -4.59597e-14 
0.14          8.46513e-16   -2.71552e-10  1.56543e-08   -5.27659e-10  2.91731e-08   -1.36068e-10  3.49047e-10   4.94852e-08   2.0608e-09    3.54057e-09   -9.28707e-08  7.4311e-08    -8.68796e-08  -8.44799e-08  8.47973e-08   -8.06429e-08  8.86731e-08   -7.90991e-08  -9.05278e-08  8.01456e-08   -8.9667e-08   8.35752e-08   -8.66564e-08  8.9311e-08    9.25617e-08   -7.75847e-08  1.0029e-07    -1.74786e-09  -1.68724e-09  -5.51259e-08  -2.03408e-09  -2.67353e-09  -3.41342e-08  -4.55578e-09  -1.68759e-08  -3.14377e-09  -9.18417e-14 
0.15          7.30122e-16   -2.68903e-10  1.56577e-08   -5.19903e-10  2.91797e-08   -1.22218e-10  3.66104e-10   4.94969e-08   2.08546e-09   3.57128e-09   -9.28679e-08  7.43313e-08   -8.68817e-08  -8.4485e-08   8.48228e-08   -8.06566e-08  8.87021e-08   -7.91243e-08  -9.05633e-08  8.01898e-08   -8.97085e-08  8.36469e-08   -8.669e-08    8.94244e-08   9.26979e-08   -7.7562e-08   1.00478e-07   -1.40967e-09  -1.30187e-09  -5.49185e-08  -1.61581e-09  -2.24515e-09  -3.35875e-08  -4.15242e-09  -1.62945e-08  -2.92119e-09  -1.08331e-13 
0.16          4.47714e-16   -2.6661e-10   1.56608e-08   -5.13179e-10  2.91853e-08   -1.10179e-10  3.80952e-10   4.95069e-08   2.10701e-09   3.59827e-09   -9.2865e-08   7.4349e-08    -8.68828e-08  -8.44887e-08  8.48456e-08   -8.06676e-08  8.87276e-08   -7.91455e-08  -9.05925e-08  8.0227e-08    -8.97425e-08  8.37063e-08   -8.6723e-08   8.95184e-08   9.28119e-08   -7.75527e-08  1.00638e-07   -1.10843e-09  -9.50041e-10  -5.47221e-08  -1.23015e-09  -1.85325e-09  -3.30989e-08  -3.80035e-09  -1.58075e-08  -2.73826e-09  -9.62765e-14 
0.17          1.21269e-16   -2.64623e-10  1.56634e-08   -5.07345e-10  2.91903e-08   -9.97043e-11  3.93887e-10   4.95156e-08   2.12584e-09   3.62196e-09   -9.28622e-08  7.43644e-08   -8.68834e-08  -8.44914e-08  8.48654e-08   -8.06765e-08  8.87497e-08   -7.91631e-08  -9.06164e-08  8.02583e-08   -8.97683e-08  8.37557e-08   -8.6749e-08   8.95956e-08   9.29056e-08   -7.75535e-08  1.00771e-07   -8.65643e-10  -6.505e-10    -5.4551e-08   -8.87841e-10  -1.50355e-09  -3.26702e-08  -3.49546e-09  -1.54004e-08  -2.58844e-09  -6.39656e-14 
0.18          -1.67431e-16  -2.62907e-10  1.56656e-08   -5.02296e-10  2.91946e-08   -9.06158e-11  4.05129e-10   4.95232e-08   2.14225e-09   3.64268e-09   -9.28595e-08  7.43776e-08   -8.68836e-08  -8.44933e-08  8.48824e-08   -8.06837e-08  8.87685e-08   -7.91777e-08  -9.06361e-08  8.02846e-08   -8.97871e-08  8.3797e-08    -8.67656e-08  8.96587e-08   9.29816e-08   -7.75533e-08  1.00879e-07   -6.80686e-10  -4.10204e-10  -5.44089e-08  -5.98761e-10  -1.20337e-09  -3.23011e-08  -3.23471e-09  -1.50611e-08  -2.46581e-09  -2.32722e-14 
0.19          -3.6337e-16   -2.61425e-10  1.56676e-08   -4.97933e-10  2.91983e-08   -8.27412e-11  4.14884e-10   4.95298e-08   2.15654e-09   3.66078e-09   -9.2857e-08   7.43891e-08   -8.68835e-08  -8.44948e-08  8.48969e-08   -8.06895e-08  8.87844e-08   -7.91899e-08  -9.06522e-08  8.03067e-08   -8.9801e-08   8.38315e-08   -8.67747e-08  8.97104e-08   9.30431e-08   -7.75451e-08  1.00965e-07   -5.32492e-10  -2.1694e-10   -5.42877e-08  -3.61121e-10  -9.53261e-10  -3.19871e-08  -3.01539e-09  -1.47792e-08  -2.36552e-09  1.43147e-14  
0.2           -4.43166e-16  -2.60146e-10  1.56693e-08   -4.94163e-10  2.92015e-08   -7.59239e-11  4.23339e-10   4.95354e-08   2.16896e-09   3.67656e-09   -9.28547e-08  7.4399e-08    -8.68833e-08  -8.44959e-08  8.49095e-08   -8.06944e-08  8.87981e-08   -7.92001e-08  -9.06657e-08  8.03254e-08   -8.98115e-08  8.38606e-08   -8.6779e-08   8.97533e-08   9.30935e-08   -7.75292e-08  1.01033e-07   -4.00507e-10  -5.21943e-11  -5.41775e-08  -1.63236e-10  -7.45325e-10  -3.17195e-08  -2.833e-09    -1.45447e-08  -2.28356e-09  4.05897e-14  
0.21          -4.24201e-16  -2.59037e-10  1.56708e-08   -4.90893e-10  2.92042e-08   -7.00097e-11  4.30676e-10   4.95403e-08   2.17976e-09   3.6903e-09    -9.28527e-08  7.44076e-08   -8.68831e-08  -8.44967e-08  8.49203e-08   -8.06985e-08  8.88097e-08   -7.92087e-08  -9.0677e-08   8.03412e-08   -8.98196e-08  8.38852e-08   -8.67806e-08  8.97892e-08   9.31352e-08   -7.75091e-08  1.01087e-07   -2.76051e-10  9.57777e-11   -5.40736e-08  7.14544e-12   -5.69063e-10  -3.14897e-08  -2.68141e-09  -1.43487e-08  -2.21642e-09  5.1947e-14   
0.22          -3.44188e-16  -2.58069e-10  1.5672e-08    -4.88041e-10  2.92066e-08   -6.48559e-11  4.37068e-10   4.95446e-08   2.18916e-09   3.70228e-09   -9.28509e-08  7.44151e-08   -8.68828e-08  -8.44974e-08  8.49297e-08   -8.0702e-08   8.88198e-08   -7.92161e-08  -9.06865e-08  8.03547e-08   -8.98261e-08  8.39061e-08   -8.67807e-08  8.98194e-08   9.31701e-08   -7.74878e-08  1.01132e-07   -1.5889e-10   2.30503e-10   -5.39762e-08  1.57258e-10   -4.16503e-10  -3.12905e-08  -2.55445e-09  -1.41838e-08  -2.16108e-09  4.91691e-14  
0.23          -2.38733e-16  -2.57221e-10  1.56731e-08   -4.85543e-10  2.92087e-08   -6.03459e-11  4.42659e-10   4.95483e-08   2.19738e-09   3.71275e-09   -9.28493e-08  7.44216e-08   -8.68825e-08  -8.44979e-08  8.49379e-08   -8.07049e-08  8.88285e-08   -7.92224e-08  -9.06946e-08  8.03663e-08   -8.98312e-08  8.3924e-08    -8.67799e-08  8.98451e-08   9.31995e-08   -7.74672e-08  1.01169e-07   -4.81203e-11  3.52394e-10   -5.38866e-08  2.90378e-10   -2.83045e-10  -3.11172e-08  -2.44702e-09  -1.4044e-08   -2.1151e-09   3.61609e-14  
0.24          -1.3705e-16   -2.56475e-10  1.56741e-08   -4.83347e-10  2.92106e-08   -5.63814e-11  4.47572e-10   4.95515e-08   2.20459e-09   3.72194e-09   -9.28478e-08  7.44272e-08   -8.68822e-08  -8.44983e-08  8.49449e-08   -8.07074e-08  8.8836e-08    -7.92279e-08  -9.07016e-08  8.03763e-08   -8.98354e-08  8.39394e-08   -8.67787e-08  8.98671e-08   9.32246e-08   -7.74477e-08  1.012e-07     4.70643e-11   4.60651e-10   -5.38057e-08  4.07941e-10   -1.66112e-10  -3.0966e-08   -2.35539e-09  -1.39247e-08  -2.0766e-09   1.82465e-14  
0.25          -5.67293e-17  -2.55817e-10  1.56749e-08   -4.81409e-10  2.92122e-08   -5.28863e-11  4.51903e-10   4.95544e-08   2.21095e-09   3.73003e-09   -9.28465e-08  7.44322e-08   -8.68819e-08  -8.44986e-08  8.49511e-08   -8.07095e-08  8.88425e-08   -7.92326e-08  -9.07076e-08  8.03849e-08   -8.98389e-08  8.39527e-08   -8.67772e-08  8.98859e-08   9.32462e-08   -7.74296e-08  1.01226e-07   1.2636e-10    5.56051e-10   -5.37336e-08  5.11334e-10   -6.38429e-11  -3.08342e-08  -2.27677e-09  -1.38224e-08  -2.04411e-09  5.88416e-16  
0.26          -4.41183e-18  -2.55235e-10  1.56757e-08   -4.79698e-10  2.92136e-08   -4.97991e-11  4.55728e-10   4.95569e-08   2.21656e-09   3.73718e-09   -9.28454e-08  7.44365e-08   -8.68816e-08  -8.44989e-08  8.49565e-08   -8.07114e-08  8.88482e-08   -7.92367e-08  -9.07127e-08  8.03924e-08   -8.98418e-08  8.39642e-08   -8.67755e-08  8.99022e-08   9.32647e-08   -7.74132e-08  1.01249e-07   1.97704e-10   6.39549e-10   -5.36695e-08  6.02108e-10   2.56627e-11   -3.07191e-08  -2.20901e-09  -1.37342e-08  -2.01651e-09  -1.29875e-14 
0.27          2.62843e-19   -2.54722e-10  1.56764e-08   -4.78186e-10  2.92148e-08   -4.70722e-11  4.59106e-10   4.95591e-08   2.22151e-09   3.74349e-09   -9.28443e-08  7.44404e-08   -8.68813e-08  -8.44991e-08  8.49613e-08   -8.0713e-08   8.88532e-08   -7.92402e-08  -9.07172e-08  8.03989e-08   -8.98441e-08  8.39742e-08   -8.67738e-08  8.99163e-08   9.32805e-08   -7.73982e-08  1.01268e-07   2.61906e-10   7.14855e-10   -5.36121e-08  6.81886e-10   1.03953e-10   -3.06183e-08  -2.15038e-09  -1.36578e-08  -1.99291e-09  -2.04935e-14 
0.28          -1.88602e-17  -2.54267e-10  1.56769e-08   -4.76848e-10  2.92159e-08   -4.46588e-11  4.62095e-10   4.9561e-08    2.2259e-09    3.74908e-09   -9.28434e-08  7.44437e-08   -8.68811e-08  -8.44993e-08  8.49654e-08   -8.07144e-08  8.88575e-08   -7.92433e-08  -9.07211e-08  8.04046e-08   -8.98461e-08  8.39829e-08   -8.67721e-08  8.99284e-08   9.32942e-08   -7.73846e-08  1.01284e-07   3.18216e-10   7.82154e-10   -5.35611e-08  7.52255e-10   1.72691e-10   -3.053e-08    -2.09948e-09  -1.35915e-08  -1.97259e-09  -2.17577e-14 
0.29          -4.93405e-17  -2.53864e-10  1.56775e-08   -4.75661e-10  2.92169e-08   -4.25181e-11  4.64747e-10   4.95627e-08   2.22979e-09   3.75404e-09   -9.28425e-08  7.44467e-08   -8.68808e-08  -8.44994e-08  8.4969e-08    -8.07156e-08  8.88613e-08   -7.9246e-08   -9.07244e-08  8.04096e-08   -8.98477e-08  8.39905e-08   -8.67705e-08  8.9939e-08    9.33061e-08   -7.73724e-08  1.01298e-07   3.69716e-10   8.40636e-10   -5.3516e-08   8.14033e-10   2.32997e-10   -3.04525e-08  -2.05516e-09  -1.35336e-08  -1.95503e-09  -1.80193e-14 
0.3           -8.15585e-17  -2.53506e-10  1.56779e-08   -4.74608e-10  2.92178e-08   -4.06184e-11  4.671e-10     4.95643e-08   2.23324e-09   3.75844e-09   -9.28418e-08  7.44493e-08   -8.68806e-08  -8.44995e-08  8.49723e-08   -8.07166e-08  8.88647e-08   -7.92484e-08  -9.07274e-08  8.0414e-08    -8.98491e-08  8.39971e-08   -8.6769e-08   8.99482e-08   9.33165e-08   -7.73613e-08  1.0131e-07    4.15851e-10   8.92075e-10   -5.34761e-08  8.68362e-10   2.85927e-10   -3.03844e-08  -2.01644e-09  -1.34831e-08  -1.93977e-09  -1.1303e-14  
