# Probe 0 (-0.01 0 0)
# Probe 1 (-0.01 0.0009 0)
# Probe 2 (-0.0098 0.0017 0)
# Probe 3 (-0.0097 0.0026 0)
# Probe 4 (-0.0094 0.0034 0)
# Probe 5 (-0.0091 0.0042 0)
# Probe 6 (-0.0087 0.005 0)
# Probe 7 (-0.0082 0.0057 0)
# Probe 8 (-0.0077 0.0064 0)
# Probe 9 (-0.0071 0.0071 0)
# Probe 10 (-0.0064 0.0077 0)
# Probe 11 (-0.0057 0.0082 0)
# Probe 12 (-0.005 0.0087 0)
# Probe 13 (-0.0042 0.0091 0)
# Probe 14 (-0.0034 0.0094 0)
# Probe 15 (-0.0026 0.0097 0)
# Probe 16 (-0.0017 0.0098 0)
# Probe 17 (-0.0009 0.01 0)
# Probe 18 (0 0.01 0)
# Probe 19 (0.0009 0.01 0)
# Probe 20 (0.0017 0.0098 0)
# Probe 21 (0.0026 0.0097 0)
# Probe 22 (0.0034 0.0094 0)
# Probe 23 (0.0042 0.0091 0)
# Probe 24 (0.005 0.0087 0)
# Probe 25 (0.0057 0.0082 0)
# Probe 26 (0.0064 0.0077 0)
# Probe 27 (0.0071 0.0071 0)
# Probe 28 (0.0077 0.0064 0)
# Probe 29 (0.0082 0.0057 0)
# Probe 30 (0.0087 0.005 0)
# Probe 31 (0.0091 0.0042 0)
# Probe 32 (0.0094 0.0034 0)
# Probe 33 (0.0097 0.0026 0)
# Probe 34 (0.0098 0.0017 0)
# Probe 35 (0.01 0.0009 0)
# Probe 36 (0.01 0 0)
# Time        0             1             2             3             4             5             6             7             8             9             10            11            12            13            14            15            16            17            18            19            20            21            22            23            24            25            26            27            28            29            30            31            32            33            34            35            36           
0.01          (0.147544 5.93482e-05 0) (0.147887 0.000472791 2.67207e-22) (0.147701 0.000992143 3.86855e-21) (0.148178 0.00136701 -1.56768e-21) (0.148195 0.00192953 8.23052e-21) (0.148735 0.00211386 0) (0.149054 0.00237792 -1.87459e-21) (0.149395 0.0028683 1.26041e-20) (0.149886 0.00279586 1.6956e-21) (0.15054 0.00284744 0) (0.151158 0.00281788 -1.29963e-21) (0.151629 0.00307448 8.883e-21) (0.152086 0.00251999 1.04162e-21) (0.152471 0.00230771 0) (0.153101 0.00231292 2.67307e-21) (0.153215 0.00164293 5.53206e-22) (0.153818 0.0013977 1.12265e-21) (0.153699 0.000768704 -6.41006e-23) (0.154172 0.000276319 -7.26283e-23) (0.153847 -0.000222813 4.20971e-23) (0.154121 -0.000796053 -3.55134e-22) (0.153618 -0.00123448 -1.11889e-22) (0.153646 -0.00194066 -1.94212e-22) (0.153019 -0.00214958 0) (0.152648 -0.00249234 -1.01186e-23) (0.152266 -0.003198 6.97542e-22) (0.151635 -0.00305454 -1.01878e-22) (0.150887 -0.00307268 0) (0.150145 -0.0031666 1.6592e-22) (0.149581 -0.0034668 1.26402e-21) (0.149012 -0.00284135 -1.63822e-22) (0.148545 -0.00257377 0) (0.147814 -0.00248136 7.63071e-22) (0.147705 -0.0017137 -1.3635e-22) (0.147044 -0.00130595 3.38025e-22) (0.147249 -0.000601199 2.18999e-23) (0.146793 -7.87236e-05 4.25116e-23)
0.02          (0.147172 6.87133e-05 0) (0.147567 0.00055179 2.66321e-22) (0.147342 0.00115 3.85469e-21) (0.147885 0.00159942 -1.55909e-21) (0.147879 0.0022469 8.1651e-21) (0.148498 0.00248696 0) (0.148854 0.00280759 -1.84594e-21) (0.14921 0.00338695 1.23483e-20) (0.149799 0.00333154 1.6485e-21) (0.150535 0.00342799 0) (0.151251 0.00346551 -1.23326e-21) (0.151816 0.00381843 8.3934e-21) (0.152379 0.0032048 9.63787e-22) (0.152858 0.0029847 0) (0.153611 0.00303443 2.38425e-21) (0.153825 0.00226616 4.81084e-22) (0.154594 0.00204386 9.34183e-22) (0.154544 0.00128035 -5.09777e-23) (0.155212 0.000751587 -4.98968e-23) (0.154902 8.58472e-05 2.8544e-23) (0.155354 -0.00056605 -1.44259e-22) (0.154811 -0.001223 -3.17013e-23) (0.154995 -0.00209523 1.56416e-22) (0.15423 -0.00251201 0) (0.153819 -0.00303631 6.99159e-23) (0.153484 -0.00403661 1.31546e-21) (0.152598 -0.00400339 -1.57645e-22) (0.151618 -0.0041832 0) (0.15057 -0.00449066 1.91084e-22) (0.149787 -0.00505455 1.22531e-21) (0.148857 -0.00422193 -1.43199e-22) (0.148107 -0.00389181 0) (0.146955 -0.0038697 4.93466e-22) (0.146686 -0.0026804 -8.1188e-23) (0.145592 -0.00209959 1.68816e-22) (0.145876 -0.000958503 1.05371e-23) (0.145131 -0.000127857 1.85163e-23)
0.03          (0.14692 7.61257e-05 0) (0.147357 0.000615476 2.66662e-22) (0.147096 0.00127497 3.86051e-21) (0.147686 0.00178641 -1.55971e-21) (0.147656 0.00249824 8.16209e-21) (0.148328 0.00278657 0) (0.148704 0.00315271 -1.83771e-21) (0.149063 0.00380034 1.22683e-20) (0.149718 0.00376645 1.63077e-21) (0.150516 0.00390415 0) (0.151296 0.00398902 -1.20542e-21) (0.151908 0.00442063 8.15673e-21) (0.152568 0.00378319 9.2391e-22) (0.153124 0.00357771 0) (0.153973 0.00369595 2.21897e-21) (0.154282 0.00285695 4.37818e-22) (0.155174 0.00267686 8.15815e-22) (0.15521 0.00181269 -4.21658e-23) (0.15604 0.00130068 -3.38299e-23) (0.155789 0.00050107 1.85933e-23) (0.156411 -0.000170152 1.96204e-23) (0.155899 -0.00101829 3.40605e-23) (0.156271 -0.00199266 4.58303e-22) (0.155451 -0.00262933 0) (0.155062 -0.00333253 1.4711e-22) (0.154874 -0.00460499 1.9702e-21) (0.153776 -0.00476585 -2.24594e-22) (0.152619 -0.00519902 0) (0.151342 -0.00583806 2.37777e-22) (0.150411 -0.0067922 1.34458e-21) (0.148957 -0.00588595 -1.40305e-22) (0.147827 -0.00558563 0) (0.146125 -0.00579472 2.75824e-22) (0.145501 -0.00406996 -3.20021e-23) (0.143715 -0.00332282 4.34412e-24) (0.14405 -0.00150591 -9.09323e-25) (0.142833 -0.000206383 -6.11016e-24)
0.04          (0.146761 8.24635e-05 0) (0.147232 0.000671556 2.69169e-22) (0.146938 0.0013815 3.89665e-21) (0.147562 0.00194967 -1.57236e-21) (0.147505 0.00271078 8.21692e-21) (0.148214 0.00304458 0) (0.1486 0.00344824 -1.84073e-21) (0.14895 0.0041466 1.22552e-20) (0.149652 0.00413667 1.62009e-21) (0.150491 0.00431099 0) (0.151317 0.00443531 -1.17786e-21) (0.151958 0.00492595 7.9325e-21) (0.152692 0.0042806 8.83097e-22) (0.153306 0.00409449 0) (0.154225 0.00428328 2.04558e-21) (0.154623 0.00340231 3.91795e-22) (0.155613 0.00328272 6.88551e-22) (0.155735 0.002347 -3.25507e-23) (0.156694 0.00187179 -1.61462e-23) (0.156519 0.000970834 7.4933e-24) (0.157287 0.000321491 2.03869e-22) (0.156851 -0.00067811 1.09621e-22) (0.157412 -0.00168711 8.08105e-22) (0.156611 -0.00252613 0) (0.156296 -0.00337845 2.42285e-22) (0.156329 -0.00484806 2.79665e-21) (0.155104 -0.00525847 -3.1499e-22) (0.153885 -0.00601339 0) (0.15252 -0.00708895 3.1477e-22) (0.151596 -0.00850808 1.66248e-21) (0.149525 -0.00777834 -1.56327e-22) (0.147938 -0.00769273 0) (0.145596 -0.00845658 7.04083e-23) (0.144211 -0.00615389 2.20602e-23) (0.141237 -0.00537758 -1.99452e-22) (0.141462 -0.00243378 -1.58668e-23) (0.13937 -0.000348469 -3.88731e-23)
0.05          (0.146684 8.81281e-05 0) (0.147185 0.000720123 2.70537e-22) (0.146859 0.00147723 3.91744e-21) (0.147509 0.00209537 -1.57982e-21) (0.147422 0.00290281 8.25403e-21) (0.148154 0.00328033 0) (0.148541 0.00371822 -1.84474e-21) (0.148875 0.00445316 1.22741e-20) (0.149607 0.00446797 1.61836e-21) (0.150471 0.00467056 0) (0.151326 0.00482499 -1.16904e-21) (0.151983 0.00536154 7.84099e-21) (0.152775 0.00471472 8.64601e-22) (0.153433 0.00454738 0) (0.154398 0.00479667 1.95823e-21) (0.154872 0.00389241 3.67355e-22) (0.155936 0.00383899 6.18369e-22) (0.156141 0.002859 -2.68418e-23) (0.157204 0.00243979 -5.27108e-24) (0.15711 0.00146565 3.37988e-25) (0.15799 0.000857538 3.27226e-22) (0.157653 -0.000252802 1.63231e-22) (0.158378 -0.00124538 1.06424e-21) (0.157651 -0.00224551 0) (0.157444 -0.00320109 3.21084e-22) (0.157724 -0.00477207 3.51391e-21) (0.156475 -0.00543457 -4.03116e-22) (0.155325 -0.00651276 0) (0.154062 -0.00803952 4.08328e-22) (0.153356 -0.00987166 2.20431e-21) (0.150771 -0.00965928 -2.0353e-22) (0.148793 -0.0100551 0) (0.145941 -0.011758 4.07265e-23) (0.143133 -0.00925253 4.92779e-23) (0.138022 -0.00876462 -3.56652e-22) (0.137518 -0.00412979 -2.96425e-23) (0.133606 -0.000610373 -6.9545e-23)
0.06          (0.146662 9.191e-05 0) (0.14718 0.000745116 2.73728e-22) (0.146833 0.00154434 3.96424e-21) (0.147498 0.00218379 -1.59794e-21) (0.147387 0.00305561 8.34658e-21) (0.148134 0.00345901 0) (0.148517 0.00394159 -1.86125e-21) (0.148835 0.00473948 1.23815e-20) (0.149584 0.00477962 1.62835e-21) (0.150461 0.00501781 0) (0.151334 0.00519593 -1.16876e-21) (0.152001 0.00576376 7.81808e-21) (0.152839 0.00511656 8.54386e-22) (0.153531 0.00496429 0) (0.154531 0.00526334 1.89727e-21) (0.155068 0.00434371 3.48871e-22) (0.156187 0.00434954 5.62435e-22) (0.156467 0.0033405 -2.2052e-23) (0.157613 0.00298499 4.14478e-24) (0.157599 0.00196168 -5.99147e-24) (0.15857 0.00140764 4.38503e-22) (0.158334 0.000216993 2.12813e-22) (0.159191 -0.000735235 1.30387e-21) (0.158562 -0.0018543 0) (0.158471 -0.00286925 3.99318e-22) (0.158983 -0.00445734 4.233e-21) (0.157791 -0.00533313 -4.97026e-22) (0.156807 -0.00667644 0) (0.155802 -0.008561 5.20873e-22) (0.155458 -0.0106263 2.98273e-21) (0.152677 -0.0111225 -2.82631e-22) (0.150566 -0.0121393 0) (0.147426 -0.0146865 2.38986e-22) (0.142718 -0.01287 3.7473e-23) (0.134057 -0.0126138 -4.28941e-22) (0.131436 -0.00653761 -4.10371e-23) (0.124462 -0.000938433 -9.36444e-23)
0.07          (0.146654 9.28627e-05 0) (0.147174 0.000746937 2.77176e-22) (0.146824 0.00156386 4.01463e-21) (0.147493 0.00219989 -1.61763e-21) (0.147376 0.00311875 8.44779e-21) (0.148129 0.00352437 0) (0.148511 0.00404505 -1.88036e-21) (0.148818 0.00493596 1.25118e-20) (0.149578 0.00499547 1.6418e-21) (0.150461 0.00529882 0) (0.151346 0.0055401 -1.17194e-21) (0.152018 0.00614675 7.82272e-21) (0.152889 0.00550215 8.48383e-22) (0.153607 0.00535982 0) (0.154633 0.00569646 1.8528e-21) (0.155223 0.00476525 3.34513e-22) (0.156386 0.00482183 5.17613e-22) (0.156729 0.00379281 -1.80579e-23) (0.157939 0.00349771 1.21083e-23) (0.158 0.00244196 -1.14559e-23) (0.159044 0.00194954 5.35229e-22) (0.158908 0.000707302 2.56888e-22) (0.159869 -0.000189384 1.5178e-21) (0.159344 -0.00139492 0) (0.159363 -0.00243898 4.72855e-22) (0.160068 -0.00398995 4.90974e-21) (0.158979 -0.00502235 -5.8994e-22) (0.158206 -0.00654585 0) (0.157527 -0.00864519 6.42682e-22) (0.157559 -0.0107514 3.92394e-21) (0.154889 -0.0118757 -3.90548e-22) (0.152872 -0.013378 0) (0.14942 -0.0162524 7.04747e-22) (0.142854 -0.0155323 -3.27487e-23) (0.129579 -0.0150978 -3.29448e-22) (0.123404 -0.00855927 -4.25488e-23) (0.112945 -0.00116686 -9.32455e-23)
0.08          (0.146631 9.28412e-05 0) (0.147152 0.000746126 2.77104e-22) (0.146804 0.00156412 4.0146e-21) (0.147475 0.00219771 -1.61698e-21) (0.14736 0.00312652 8.44511e-21) (0.148117 0.00352942 0) (0.148502 0.00406255 -1.87722e-21) (0.148808 0.0050097 1.24948e-20) (0.149576 0.00507851 1.63718e-21) (0.150465 0.00544102 0) (0.151362 0.00577866 -1.16491e-21) (0.152038 0.00647307 7.74862e-21) (0.152932 0.00585351 8.36052e-22) (0.153668 0.00573714 0) (0.154715 0.00610964 1.79901e-21) (0.155346 0.00516868 3.19565e-22) (0.156544 0.00526556 4.75892e-22) (0.156942 0.004221 -1.45464e-23) (0.158203 0.00397952 1.86183e-23) (0.158329 0.00290131 -1.59671e-23) (0.159428 0.00246838 6.11541e-22) (0.159385 0.00119551 2.92239e-22) (0.160429 0.000364743 1.68607e-21) (0.160009 -0.000897001 0) (0.160125 -0.00194846 5.34251e-22) (0.160981 -0.00343653 5.46158e-21) (0.160011 -0.00457852 -6.70479e-22) (0.15945 -0.00620588 0) (0.159087 -0.00839164 7.55677e-22) (0.159428 -0.0104127 4.86145e-21) (0.157015 -0.011967 -5.11184e-22) (0.155152 -0.0137269 0) (0.151172 -0.0165272 1.33619e-21) (0.142958 -0.016637 -1.5203e-22) (0.124911 -0.0158119 -6.37551e-23) (0.114705 -0.00946042 -2.98727e-23) (0.101349 -0.00123815 -6.22023e-23)
0.09          (0.146598 9.32007e-05 0) (0.147121 0.000750228 2.80896e-22) (0.146772 0.00156971 4.06958e-21) (0.147447 0.00220774 -1.63874e-21) (0.147333 0.00313511 8.55635e-21) (0.148096 0.00354 0) (0.148485 0.00407282 -1.89979e-21) (0.148794 0.00502896 1.26419e-20) (0.14957 0.00509966 1.65439e-21) (0.150466 0.00548303 0) (0.151373 0.00588107 -1.17245e-21) (0.152059 0.00667229 7.78363e-21) (0.152968 0.00609582 8.35938e-22) (0.153718 0.00604016 0) (0.154781 0.00648597 1.77594e-21) (0.155444 0.00555317 3.10978e-22) (0.15667 0.00569042 4.46674e-22) (0.157113 0.00463327 -1.17303e-23) (0.158415 0.00443652 2.43986e-23) (0.158598 0.00334124 -2.00586e-23) (0.15974 0.0029619 6.84721e-22) (0.15978 0.00167038 3.26602e-22) (0.160888 0.000905787 1.85292e-21) (0.160565 -0.000387937 0) (0.160768 -0.0014284 5.95537e-22) (0.16174 -0.0028376 6.01729e-21) (0.160889 -0.00405267 -7.50943e-22) (0.160517 -0.00573343 0) (0.160423 -0.00792236 8.71544e-22) (0.160984 -0.00980099 5.82423e-21) (0.158849 -0.011604 -6.44538e-22) (0.157087 -0.013449 0) (0.152356 -0.0160023 2.03919e-21) (0.14265 -0.016575 -2.98446e-22) (0.12033 -0.0153927 2.8733e-22) (0.106524 -0.00943401 -7.34053e-24) (0.0912259 -0.00120354 -1.32848e-23)
0.1           (0.146562 9.39279e-05 0) (0.14709 0.000756932 2.81042e-22) (0.146737 0.00158179 4.07242e-21) (0.147417 0.00222685 -1.63946e-21) (0.147302 0.00315736 8.56046e-21) (0.14807 0.0035675 0) (0.148463 0.00410169 -1.89894e-21) (0.148773 0.00505551 1.26358e-20) (0.149557 0.00512676 1.6523e-21) (0.150462 0.00550943 0) (0.151378 0.00591919 -1.16845e-21) (0.152073 0.00675862 7.73939e-21) (0.152993 0.00620975 8.2817e-22) (0.153757 0.00621352 0) (0.154835 0.00676205 1.73884e-21) (0.155523 0.0058689 3.00949e-22) (0.156772 0.00607955 4.18128e-22) (0.157252 0.00502798 -9.26765e-24) (0.158588 0.00487609 2.89515e-23) (0.158819 0.00376757 -2.3298e-23) (0.159996 0.00343427 7.39138e-22) (0.160108 0.00212999 3.52501e-22) (0.161265 0.00142618 1.97536e-21) (0.161029 0.00011443 0) (0.161305 -0.000905331 6.43211e-22) (0.162364 -0.00222967 6.43279e-21) (0.161626 -0.00348532 -8.14602e-22) (0.161416 -0.0051812 0) (0.161534 -0.00732738 9.6636e-22) (0.162236 -0.0090499 6.62869e-21) (0.160338 -0.0109824 -7.65975e-22) (0.158589 -0.0128173 0) (0.152959 -0.0150935 2.68387e-21) (0.141879 -0.0158799 -4.43306e-22) (0.116035 -0.0144689 6.49111e-22) (0.0994205 -0.00892695 1.95644e-23) (0.0830365 -0.001123 4.14145e-23)
0.11          (0.146528 9.47438e-05 0) (0.14706 0.000763958 2.85163e-22) (0.146704 0.00159566 4.1319e-21) (0.147389 0.00224783 -1.6632e-21) (0.147271 0.00318526 8.68187e-21) (0.148045 0.00360145 0) (0.14844 0.0041404 -1.92422e-21) (0.148751 0.00509765 1.28014e-20) (0.149542 0.00517132 1.67236e-21) (0.150454 0.00555362 0) (0.151378 0.00596001 -1.17875e-21) (0.152079 0.00680799 7.80744e-21) (0.153011 0.00626277 8.31567e-22) (0.153785 0.00629159 0) (0.154878 0.0069135 1.72993e-21) (0.155584 0.00606379 2.96226e-22) (0.156854 0.00637473 3.98944e-22) (0.157363 0.00536124 -7.25834e-24) (0.158729 0.00528173 3.32314e-23) (0.159001 0.00417756 -2.641e-23) (0.160207 0.00388975 7.95371e-22) (0.160379 0.00257785 3.79387e-22) (0.161575 0.00192752 2.10614e-21) (0.161415 0.000604918 0) (0.161752 -0.000391363 6.92817e-22) (0.162877 -0.00163423 6.87445e-21) (0.162239 -0.00290894 -8.79561e-22) (0.162165 -0.00459222 0) (0.162447 -0.00666823 1.06258e-21) (0.163228 -0.00824003 7.41906e-21) (0.16151 -0.0102281 -8.8836e-22) (0.159689 -0.0120117 0) (0.153097 -0.0140472 3.29011e-21) (0.140752 -0.0149181 -5.83019e-22) (0.112146 -0.0134134 9.92267e-22) (0.0935034 -0.00825528 4.64789e-23) (0.0766438 -0.00103236 9.38882e-23)
0.12          (0.146498 9.55246e-05 0) (0.147034 0.000770531 2.85399e-22) (0.146673 0.00160903 4.13587e-21) (0.147363 0.00226775 -1.6645e-21) (0.147242 0.00321301 8.689e-21) (0.148022 0.00363505 0) (0.148418 0.00418001 -1.92443e-21) (0.148728 0.00514529 1.28041e-20) (0.149526 0.00522287 1.67166e-21) (0.150446 0.00560986 0) (0.151376 0.00601758 -1.17644e-21) (0.15208 0.00686648 7.78427e-21) (0.153024 0.00631657 8.26087e-22) (0.153807 0.00634697 0) (0.154911 0.00699515 1.7052e-21) (0.155633 0.0061633 2.89095e-22) (0.156921 0.00655042 3.78562e-22) (0.157452 0.00558295 -5.45432e-24) (0.158844 0.00560066 3.65111e-23) (0.159149 0.00453258 -2.88183e-23) (0.160382 0.00430799 8.34667e-22) (0.160605 0.00300975 3.98483e-22) (0.161834 0.00241119 2.19507e-21) (0.161738 0.00108435 0) (0.162126 0.000111082 7.28748e-22) (0.163299 -0.00105861 7.17754e-21) (0.162748 -0.00234063 -9.27e-22) (0.162785 -0.00399737 0) (0.163188 -0.00599085 1.13419e-21) (0.164005 -0.00742662 8.01224e-21) (0.162414 -0.00942136 -9.86992e-22) (0.160461 -0.011139 0) (0.152914 -0.012992 3.76702e-21) (0.139419 -0.0138917 -6.98024e-22) (0.108708 -0.012404 1.27835e-21) (0.0886696 -0.00758298 7.02046e-23) (0.0717162 -0.000948033 1.38722e-22)
0.13          (0.14647 9.6235e-05 0) (0.14701 0.000776465 2.85552e-22) (0.146646 0.00162121 4.1386e-21) (0.14734 0.00228582 -1.66531e-21) (0.147216 0.00323858 8.69361e-21) (0.148001 0.00366594 0) (0.148398 0.00421687 -1.92419e-21) (0.148707 0.00519139 1.28038e-20) (0.149512 0.00527323 1.67062e-21) (0.150437 0.00566746 0) (0.151372 0.006082 -1.17406e-21) (0.152078 0.00693685 7.76091e-21) (0.153035 0.00638473 8.20886e-22) (0.153826 0.0064138 0) (0.154937 0.0070674 1.68307e-21) (0.155673 0.00623297 2.82549e-22) (0.156975 0.0066523 3.6033e-22) (0.157525 0.0057073 -3.82268e-24) (0.158938 0.00580428 3.94344e-23) (0.15927 0.00478363 -3.09883e-23) (0.160526 0.00463834 8.69192e-22) (0.160793 0.00338975 4.15449e-22) (0.16205 0.00285604 2.27214e-21) (0.162009 0.00154586 0) (0.16244 0.000599972 7.60182e-22) (0.163651 -0.000504027 7.43612e-21) (0.163173 -0.00178581 -9.67537e-22) (0.163299 -0.00341119 0) (0.163791 -0.00532207 1.195e-21) (0.164614 -0.00664132 8.5061e-21) (0.163104 -0.00861487 -1.07177e-21) (0.160981 -0.0102659 0) (0.152535 -0.0119955 4.15502e-21) (0.138014 -0.0129023 -7.93632e-22) (0.105725 -0.0115093 1.51435e-21) (0.0847519 -0.00697878 9.02738e-23) (0.0679183 -0.000875682 1.75808e-22)
0.14          (0.146446 9.68638e-05 0) (0.146989 0.000781711 2.85671e-22) (0.146622 0.00163199 4.14074e-21) (0.14732 0.00230182 -1.66595e-21) (0.147193 0.0032613 8.69724e-21) (0.147982 0.00369345 0) (0.148381 0.00424984 -1.92396e-21) (0.148688 0.00523318 1.28038e-20) (0.149498 0.00531917 1.66979e-21) (0.150428 0.005721 0) (0.151369 0.00614443 -1.17218e-21) (0.152076 0.00700904 7.74181e-21) (0.153043 0.00645835 8.167e-22) (0.153841 0.00649023 0) (0.154957 0.0071498 1.66541e-21) (0.155708 0.00630944 2.77235e-22) (0.157019 0.00673844 3.4573e-22) (0.157587 0.00579319 -2.48009e-24) (0.159016 0.00592965 4.18283e-23) (0.159371 0.00493612 -3.27943e-23) (0.160645 0.00485767 8.9772e-22) (0.160949 0.00367149 4.298e-22) (0.162232 0.00321567 2.33587e-21) (0.162237 0.00195471 0) (0.162705 0.00105303 7.8705e-22) (0.163947 1.64503e-05 7.65096e-21) (0.16353 -0.00125035 -1.00157e-21) (0.163727 -0.0028399 0) (0.164284 -0.00467426 1.24578e-21) (0.165096 -0.00589821 8.91036e-21) (0.16363 -0.00783877 -1.14335e-21) (0.16132 -0.00943182 0) (0.152055 -0.0110898 4.46568e-21) (0.136632 -0.0119986 -8.71553e-22) (0.103169 -0.0107465 1.70556e-21) (0.0815812 -0.00646323 1.06802e-22) (0.0649715 -0.000815999 2.05873e-22)
0.15          (0.146424 9.74111e-05 0) (0.146971 0.000786281 2.85742e-22) (0.146601 0.00164137 4.14215e-21) (0.147302 0.00231578 -1.66632e-21) (0.147173 0.00328111 8.69946e-21) (0.147965 0.00371752 0) (0.148365 0.00427874 -1.92356e-21) (0.148671 0.00526994 1.28025e-20) (0.149486 0.00535975 1.6689e-21) (0.15042 0.0057687 0) (0.151364 0.00620107 -1.17043e-21) (0.152073 0.00707635 7.72427e-21) (0.15305 0.00652901 8.13029e-22) (0.153853 0.00656664 0) (0.154973 0.00723668 1.65003e-21) (0.155737 0.00639449 2.72667e-22) (0.157055 0.00683166 3.3329e-22) (0.157639 0.00588036 -1.33345e-24) (0.15908 0.00603227 4.38599e-23) (0.159455 0.00504209 -3.43256e-23) (0.160743 0.00500193 9.22001e-22) (0.16108 0.00385503 4.42059e-22) (0.162383 0.0034681 2.38983e-21) (0.16243 0.00226839 0) (0.16293 0.00142663 8.1037e-22) (0.1642 0.000466485 7.83006e-21) (0.163834 -0.000759727 -1.0304e-21) (0.16409 -0.00229747 0) (0.164696 -0.00405807 1.28816e-21) (0.165489 -0.00520565 9.24018e-21) (0.16404 -0.0071081 -1.20313e-21) (0.161539 -0.00865576 0) (0.151544 -0.0102839 4.71172e-21) (0.135333 -0.0111991 -9.34245e-22) (0.100997 -0.0101097 1.85859e-21) (0.0790088 -0.00603527 1.20185e-22) (0.0626611 -0.000767723 2.29928e-22)
0.16          (0.146406 9.78848e-05 0) (0.146955 0.000790239 2.89845e-22) (0.146583 0.00164948 4.20103e-21) (0.147287 0.00232788 -1.69001e-21) (0.147155 0.00329828 8.82029e-21) (0.147951 0.00373843 0) (0.148351 0.00430389 -1.94944e-21) (0.148656 0.00530197 1.29724e-20) (0.149475 0.00539523 1.69001e-21) (0.150412 0.00581057 0) (0.15136 0.00625116 -1.18253e-21) (0.152069 0.00713646 7.80977e-21) (0.153054 0.00659305 8.19783e-22) (0.153862 0.0066373 0) (0.154986 0.00731982 1.65788e-21) (0.155761 0.00647942 2.72175e-22) (0.157085 0.0069286 3.26734e-22) (0.157683 0.0059748 -3.49891e-25) (0.159132 0.00613803 4.61955e-23) (0.159526 0.00514295 -3.60981e-23) (0.160823 0.0051219 9.55055e-22) (0.161188 0.00398564 4.58263e-22) (0.162506 0.00364343 2.4677e-21) (0.162591 0.0024852 0) (0.163119 0.00169833 8.406e-22) (0.164412 0.000814827 8.0841e-21) (0.164093 -0.000353592 -1.06712e-21) (0.164399 -0.00181724 0) (0.165045 -0.00349666 1.3409e-21) (0.165818 -0.00458022 9.63571e-21) (0.16437 -0.00643361 -1.26974e-21) (0.161684 -0.00794539 0) (0.151049 -0.00957391 4.97208e-21) (0.134152 -0.0105025 -9.98204e-22) (0.0991599 -0.00958196 2.00839e-21) (0.0769132 -0.0056845 1.32824e-22) (0.0608293 -0.000728929 2.52692e-22)
0.17          (0.14639 9.82952e-05 0) (0.146941 0.000793666 2.89884e-22) (0.146567 0.00165651 4.20187e-21) (0.147273 0.00233838 -1.6902e-21) (0.14714 0.00331319 8.82152e-21) (0.147938 0.00375662 0) (0.148339 0.00432579 -1.94903e-21) (0.148642 0.00532988 1.29708e-20) (0.149465 0.00542622 1.68926e-21) (0.150405 0.00584724 0) (0.151355 0.00629515 -1.18118e-21) (0.152065 0.00718941 7.7962e-21) (0.153057 0.00664989 8.17021e-22) (0.153869 0.00670056 0) (0.154995 0.00739537 1.64633e-21) (0.155781 0.00655841 2.68802e-22) (0.157108 0.00702159 3.17582e-22) (0.15772 0.0060693 4.91044e-25) (0.159175 0.00624658 4.76628e-23) (0.159586 0.00524909 -3.72053e-23) (0.160889 0.00524219 9.72568e-22) (0.161278 0.0041049 4.66988e-22) (0.162606 0.00378881 2.50688e-21) (0.162724 0.00264572 0) (0.163275 0.00189352 8.5761e-22) (0.164585 0.00107192 8.21014e-21) (0.16431 -4.68771e-05 -1.08785e-21) (0.164658 -0.00143081 0) (0.165339 -0.00302124 1.37034e-21) (0.166091 -0.00404655 9.8566e-21) (0.164641 -0.00583424 -1.31076e-21) (0.161786 -0.00731132 0) (0.150595 -0.0089563 5.124e-21) (0.133106 -0.00990082 -1.03841e-21) (0.0976143 -0.00914526 2.10583e-21) (0.0751981 -0.00539796 1.41522e-22) (0.0593611 -0.000697735 2.68064e-22)
0.18          (0.146377 9.86501e-05 0) (0.14693 0.000796629 2.8992e-22) (0.146553 0.0016626 4.20265e-21) (0.147262 0.00234746 -1.69039e-21) (0.147127 0.00332611 8.82269e-21) (0.147927 0.0037724 0) (0.148329 0.00434482 -1.9487e-21) (0.148631 0.00535417 1.29697e-20) (0.149456 0.00545324 1.68864e-21) (0.150399 0.00587929 0) (0.151351 0.00633369 -1.18003e-21) (0.152061 0.00723584 7.78464e-21) (0.153058 0.00669995 8.14659e-22) (0.153875 0.00675649 0) (0.155002 0.0074625 1.63643e-21) (0.155797 0.00662941 2.65915e-22) (0.157128 0.0071064 3.09749e-22) (0.157751 0.0061577 1.21177e-24) (0.159211 0.00635081 4.89119e-23) (0.159636 0.00535505 -3.81527e-23) (0.160942 0.0053631 9.87394e-22) (0.161353 0.00422642 4.74371e-22) (0.162687 0.00392964 2.54002e-21) (0.162832 0.00278959 0) (0.163402 0.00205563 8.71871e-22) (0.164722 0.00127761 8.31637e-21) (0.164485 0.000186854 -1.10513e-21) (0.16487 -0.00113467 0) (0.165578 -0.00264149 1.39457e-21) (0.166306 -0.00361201 1.00359e-20) (0.164858 -0.00532682 -1.34407e-21) (0.161853 -0.00676605 0) (0.150186 -0.0084306 5.241e-21) (0.132195 -0.00938698 -1.06995e-21) (0.0963175 -0.00878435 2.18222e-21) (0.0737885 -0.00516385 1.48423e-22) (0.0581729 -0.000672566 2.80188e-22)
0.19          (0.146365 9.89564e-05 0) (0.14692 0.000799184 2.89958e-22) (0.146542 0.00166786 4.20341e-21) (0.147252 0.00235531 -1.69058e-21) (0.147115 0.0033373 8.82389e-21) (0.147918 0.00378606 0) (0.14832 0.00436133 -1.94846e-21) (0.14862 0.00537528 1.2969e-20) (0.149448 0.00547677 1.68814e-21) (0.150393 0.00590725 0) (0.151348 0.00636741 -1.17908e-21) (0.152057 0.0072765 7.77485e-21) (0.15306 0.00674393 8.12641e-22) (0.153879 0.00680573 0) (0.155008 0.00752168 1.62794e-21) (0.15581 0.0066924 2.63438e-22) (0.157143 0.00718201 3.03033e-22) (0.157777 0.00623753 1.83172e-24) (0.15924 0.00644619 4.99799e-23) (0.159678 0.00545458 -3.89687e-23) (0.160987 0.00547823 1.00004e-21) (0.161415 0.00434658 4.80689e-22) (0.162752 0.00406821 2.56814e-21) (0.16292 0.00293158 0) (0.163504 0.00221004 8.83932e-22) (0.164829 0.00146365 8.40619e-21) (0.164624 0.000385909 -1.11954e-21) (0.165039 -0.000895835 0) (0.165764 -0.00233593 1.41455e-21) (0.166466 -0.00325779 1.01813e-20) (0.165017 -0.00490854 -1.37115e-21) (0.161883 -0.00631046 0) (0.149813 -0.00799169 5.33154e-21) (0.131405 -0.00895466 -1.09463e-21) (0.0952287 -0.00848711 2.24207e-21) (0.0726248 -0.00497261 1.53882e-22) (0.0572025 -0.000652191 2.89748e-22)
0.2           (0.146355 9.92208e-05 0) (0.146911 0.00080139 2.89995e-22) (0.146532 0.0016724 4.20414e-21) (0.147243 0.00236209 -1.69078e-21) (0.147105 0.00334697 8.82508e-21) (0.14791 0.00379789 0) (0.148312 0.00437563 -1.94828e-21) (0.148611 0.00539361 1.29687e-20) (0.149442 0.00549722 1.68774e-21) (0.150388 0.00593161 0) (0.151344 0.00639686 -1.17828e-21) (0.152054 0.00731206 7.76655e-21) (0.153061 0.00678251 8.10909e-22) (0.153883 0.006849 0) (0.155013 0.00757372 1.62065e-21) (0.155822 0.00674799 2.61299e-22) (0.157156 0.00724886 2.97229e-22) (0.157798 0.00630856 2.36962e-24) (0.159264 0.00653153 5.09051e-23) (0.159713 0.00554479 -3.96765e-23) (0.161024 0.00558339 1.01091e-21) (0.161468 0.00445941 4.86143e-22) (0.162806 0.00419914 2.59216e-21) (0.162992 0.00306957 0) (0.163587 0.00236043 8.9425e-22) (0.164913 0.0016402 8.48222e-21) (0.164733 0.000571607 -1.13162e-21) (0.16517 -0.000683716 0) (0.165903 -0.00207426 1.43112e-21) (0.166578 -0.00295674 1.02993e-20) (0.165124 -0.00455959 -1.39332e-21) (0.161876 -0.00593075 0) (0.149468 -0.00762701 5.40268e-21) (0.130716 -0.00859461 -1.11408e-21) (0.0943101 -0.00824272 2.28935e-21) (0.0716582 -0.00481635 1.58214e-22) (0.0564024 -0.000635622 2.97326e-22)
0.21          (0.146346 9.94498e-05 0) (0.146903 0.000803304 2.90031e-22) (0.146523 0.00167634 4.20482e-21) (0.147236 0.00236797 -1.69097e-21) (0.147097 0.00335536 8.82623e-21) (0.147902 0.00380815 0) (0.148305 0.00438804 -1.94815e-21) (0.148604 0.00540953 1.29685e-20) (0.149436 0.00551499 1.68741e-21) (0.150384 0.00595282 0) (0.151341 0.00642256 -1.17759e-21) (0.152051 0.00734315 7.75945e-21) (0.153061 0.00681631 8.09412e-22) (0.153886 0.00688698 0) (0.155016 0.00761944 1.61434e-21) (0.155831 0.00679698 2.59446e-22) (0.157167 0.0073078 2.92208e-22) (0.157816 0.00637142 2.83666e-24) (0.159284 0.00660714 5.17046e-23) (0.159743 0.00562529 -4.02917e-23) (0.161054 0.00567745 1.0203e-21) (0.161512 0.00456185 4.90871e-22) (0.162851 0.00431853 2.61281e-21) (0.163053 0.00319829 0) (0.163655 0.00250223 9.03152e-22) (0.16498 0.00180534 8.54682e-21) (0.16482 0.000747206 -1.14185e-21) (0.165273 -0.000486135 0) (0.166008 -0.00183815 1.44472e-21) (0.166656 -0.00269074 1.03957e-20) (0.16519 -0.00425913 -1.41164e-21) (0.16184 -0.00560848 0) (0.149146 -0.00732142 5.45951e-21) (0.130109 -0.00829482 -1.12963e-21) (0.0935295 -0.00804114 2.32722e-21) (0.0708492 -0.00468828 1.61681e-22) (0.0557363 -0.000622049 3.03393e-22)
0.22          (0.146338 9.96493e-05 0) (0.146896 0.000804973 2.90063e-22) (0.146515 0.00167977 4.20543e-21) (0.147229 0.00237309 -1.69114e-21) (0.147089 0.00336266 8.82727e-21) (0.147896 0.00381709 0) (0.148299 0.00439885 -1.94804e-21) (0.148597 0.00542339 1.29685e-20) (0.149431 0.00553047 1.68714e-21) (0.15038 0.0059713 0) (0.151338 0.00644497 -1.17701e-21) (0.152048 0.0073703 7.75329e-21) (0.153062 0.00684589 8.0811e-22) (0.153888 0.00692027 0) (0.155019 0.00765958 1.60885e-21) (0.155839 0.0068401 2.57833e-22) (0.157176 0.00735971 2.87841e-22) (0.157832 0.00642696 3.24367e-24) (0.159302 0.00667395 5.23991e-23) (0.159768 0.00569669 -4.08274e-23) (0.16108 0.00576091 1.02844e-21) (0.161549 0.00465342 4.94976e-22) (0.162888 0.00442537 2.63064e-21) (0.163104 0.00331499 0) (0.163712 0.00263179 9.10834e-22) (0.165035 0.00195579 8.60222e-21) (0.164891 0.000909474 -1.15069e-21) (0.165356 -0.000304287 0) (0.166089 -0.00162264 1.45596e-21) (0.166711 -0.00245279 1.04757e-20) (0.16523 -0.00399423 -1.42658e-21) (0.161788 -0.00532949 0) (0.148851 -0.00706197 5.50573e-21) (0.129574 -0.00804338 -1.14228e-21) (0.0928615 -0.00787374 2.35809e-21) (0.0701668 -0.00458263 1.64495e-22) (0.0551767 -0.000610831 3.08321e-22)
0.23          (0.146331 9.98238e-05 0) (0.146891 0.000806436 2.90096e-22) (0.146508 0.00168277 4.20603e-21) (0.147223 0.00237758 -1.69132e-21) (0.147082 0.00336905 8.82832e-21) (0.14789 0.00382492 0) (0.148293 0.00440831 -1.94798e-21) (0.148591 0.00543549 1.29687e-20) (0.149426 0.005544 1.68693e-21) (0.150376 0.00598745 0) (0.151336 0.00646455 -1.17652e-21) (0.152045 0.00739401 7.7481e-21) (0.153062 0.00687176 8.06989e-22) (0.15389 0.00694942 0) (0.155022 0.00769477 1.60412e-21) (0.155846 0.00687798 2.56435e-22) (0.157184 0.00740536 2.84061e-22) (0.157846 0.00647593 3.59814e-24) (0.159316 0.00673288 5.30016e-23) (0.15979 0.00575986 -4.12946e-23) (0.161102 0.00583469 1.0355e-21) (0.161581 0.00473471 4.98546e-22) (0.162919 0.00452011 2.64605e-21) (0.163147 0.00341911 0) (0.163761 0.0027477 9.17497e-22) (0.165081 0.00209008 8.64931e-21) (0.16495 0.0010554 -1.15817e-21) (0.165425 -0.000136962 0) (0.166151 -0.00142739 1.4652e-21) (0.166752 -0.00224067 1.05408e-20) (0.165252 -0.00375943 -1.43871e-21) (0.161729 -0.0050855 0) (0.148582 -0.00683939 5.5428e-21) (0.129101 -0.00783049 -1.15255e-21) (0.0922865 -0.00773356 2.38322e-21) (0.0695867 -0.00449477 1.66783e-22) (0.0547027 -0.000601476 3.1233e-22)